+ 0.1 0 2 tcp 40 ------- 0 0.0 3.0 0 0
- 0.1 0 2 tcp 40 ------- 0 0.0 3.0 0 0
+ 0.1 1 2 cbr 210 ------- 0 1.0 3.1 0 1
- 0.1 1 2 cbr 210 ------- 0 1.0 3.1 0 1
+ 0.10375 1 2 cbr 210 ------- 0 1.0 3.1 1 2
- 0.10375 1 2 cbr 210 ------- 0 1.0 3.1 1 2
+ 0.1075 1 2 cbr 210 ------- 0 1.0 3.1 2 3
- 0.1075 1 2 cbr 210 ------- 0 1.0 3.1 2 3
r 0.10832 0 2 tcp 40 ------- 0 0.0 3.0 0 0
+ 0.10832 2 3 tcp 40 ------- 0 0.0 3.0 0 0
- 0.10832 2 3 tcp 40 ------- 0 0.0 3.0 0 0
r 0.10968 1 2 cbr 210 ------- 0 1.0 3.1 0 1
+ 0.10968 2 3 cbr 210 ------- 0 1.0 3.1 0 1
- 0.10968 2 3 cbr 210 ------- 0 1.0 3.1 0 1
+ 0.11125 1 2 cbr 210 ------- 0 1.0 3.1 3 4
- 0.11125 1 2 cbr 210 ------- 0 1.0 3.1 3 4
r 0.11343 1 2 cbr 210 ------- 0 1.0 3.1 1 2
+ 0.11343 2 3 cbr 210 ------- 0 1.0 3.1 1 2
- 0.11343 2 3 cbr 210 ------- 0 1.0 3.1 1 2
+ 0.115 1 2 cbr 210 ------- 0 1.0 3.1 4 5
- 0.115 1 2 cbr 210 ------- 0 1.0 3.1 4 5
r 0.11648 2 3 tcp 40 ------- 0 0.0 3.0 0 0
+ 0.11648 3 2 ack 40 ------- 0 3.0 0.0 0 6
- 0.11648 3 2 ack 40 ------- 0 3.0 0.0 0 6
r 0.11718 1 2 cbr 210 ------- 0 1.0 3.1 2 3
+ 0.11718 2 3 cbr 210 ------- 0 1.0 3.1 2 3
- 0.11718 2 3 cbr 210 ------- 0 1.0 3.1 2 3
r 0.11852 2 3 cbr 210 ------- 0 1.0 3.1 0 1
+ 0.11875 1 2 cbr 210 ------- 0 1.0 3.1 5 7
- 0.11875 1 2 cbr 210 ------- 0 1.0 3.1 5 7
r 0.12093 1 2 cbr 210 ------- 0 1.0 3.1 3 4
+ 0.12093 2 3 cbr 210 ------- 0 1.0 3.1 3 4
- 0.12093 2 3 cbr 210 ------- 0 1.0 3.1 3 4
r 0.12227 2 3 cbr 210 ------- 0 1.0 3.1 1 2
+ 0.1225 1 2 cbr 210 ------- 0 1.0 3.1 6 8
- 0.1225 1 2 cbr 210 ------- 0 1.0 3.1 6 8
r 0.12464 3 2 ack 40 ------- 0 3.0 0.0 0 6
+ 0.12464 2 0 ack 40 ------- 0 3.0 0.0 0 6
- 0.12464 2 0 ack 40 ------- 0 3.0 0.0 0 6
r 0.12468 1 2 cbr 210 ------- 0 1.0 3.1 4 5
+ 0.12468 2 3 cbr 210 ------- 0 1.0 3.1 4 5
- 0.12468 2 3 cbr 210 ------- 0 1.0 3.1 4 5
r 0.12602 2 3 cbr 210 ------- 0 1.0 3.1 2 3
+ 0.12625 1 2 cbr 210 ------- 0 1.0 3.1 7 9
- 0.12625 1 2 cbr 210 ------- 0 1.0 3.1 7 9
r 0.12843 1 2 cbr 210 ------- 0 1.0 3.1 5 7
+ 0.12843 2 3 cbr 210 ------- 0 1.0 3.1 5 7
- 0.12843 2 3 cbr 210 ------- 0 1.0 3.1 5 7
r 0.12977 2 3 cbr 210 ------- 0 1.0 3.1 3 4
+ 0.13 1 2 cbr 210 ------- 0 1.0 3.1 8 10
- 0.13 1 2 cbr 210 ------- 0 1.0 3.1 8 10
r 0.13218 1 2 cbr 210 ------- 0 1.0 3.1 6 8
+ 0.13218 2 3 cbr 210 ------- 0 1.0 3.1 6 8
- 0.13218 2 3 cbr 210 ------- 0 1.0 3.1 6 8
r 0.13296 2 0 ack 40 ------- 0 3.0 0.0 0 6
+ 0.13296 0 2 tcp 1040 ------- 0 0.0 3.0 1 11
- 0.13296 0 2 tcp 1040 ------- 0 0.0 3.0 1 11
+ 0.13296 0 2 tcp 1040 ------- 0 0.0 3.0 2 12
r 0.13352 2 3 cbr 210 ------- 0 1.0 3.1 4 5
+ 0.13375 1 2 cbr 210 ------- 0 1.0 3.1 9 13
- 0.13375 1 2 cbr 210 ------- 0 1.0 3.1 9 13
r 0.13593 1 2 cbr 210 ------- 0 1.0 3.1 7 9
+ 0.13593 2 3 cbr 210 ------- 0 1.0 3.1 7 9
- 0.13593 2 3 cbr 210 ------- 0 1.0 3.1 7 9
r 0.13727 2 3 cbr 210 ------- 0 1.0 3.1 5 7
+ 0.1375 1 2 cbr 210 ------- 0 1.0 3.1 10 14
- 0.1375 1 2 cbr 210 ------- 0 1.0 3.1 10 14
r 0.13968 1 2 cbr 210 ------- 0 1.0 3.1 8 10
+ 0.13968 2 3 cbr 210 ------- 0 1.0 3.1 8 10
- 0.13968 2 3 cbr 210 ------- 0 1.0 3.1 8 10
r 0.14102 2 3 cbr 210 ------- 0 1.0 3.1 6 8
+ 0.14125 1 2 cbr 210 ------- 0 1.0 3.1 11 15
- 0.14125 1 2 cbr 210 ------- 0 1.0 3.1 11 15
- 0.14128 0 2 tcp 1040 ------- 0 0.0 3.0 2 12
r 0.14343 1 2 cbr 210 ------- 0 1.0 3.1 9 13
+ 0.14343 2 3 cbr 210 ------- 0 1.0 3.1 9 13
- 0.14343 2 3 cbr 210 ------- 0 1.0 3.1 9 13
r 0.14477 2 3 cbr 210 ------- 0 1.0 3.1 7 9
+ 0.145 1 2 cbr 210 ------- 0 1.0 3.1 12 16
- 0.145 1 2 cbr 210 ------- 0 1.0 3.1 12 16
r 0.14718 1 2 cbr 210 ------- 0 1.0 3.1 10 14
+ 0.14718 2 3 cbr 210 ------- 0 1.0 3.1 10 14
- 0.14718 2 3 cbr 210 ------- 0 1.0 3.1 10 14
r 0.14852 2 3 cbr 210 ------- 0 1.0 3.1 8 10
+ 0.14875 1 2 cbr 210 ------- 0 1.0 3.1 13 17
- 0.14875 1 2 cbr 210 ------- 0 1.0 3.1 13 17
r 0.14928 0 2 tcp 1040 ------- 0 0.0 3.0 1 11
+ 0.14928 2 3 tcp 1040 ------- 0 0.0 3.0 1 11
- 0.14928 2 3 tcp 1040 ------- 0 0.0 3.0 1 11
r 0.15093 1 2 cbr 210 ------- 0 1.0 3.1 11 15
+ 0.15093 2 3 cbr 210 ------- 0 1.0 3.1 11 15
r 0.15227 2 3 cbr 210 ------- 0 1.0 3.1 9 13
+ 0.1525 1 2 cbr 210 ------- 0 1.0 3.1 14 18
- 0.1525 1 2 cbr 210 ------- 0 1.0 3.1 14 18
- 0.15344 2 3 cbr 210 ------- 0 1.0 3.1 11 15
r 0.15468 1 2 cbr 210 ------- 0 1.0 3.1 12 16
+ 0.15468 2 3 cbr 210 ------- 0 1.0 3.1 12 16
- 0.15468 2 3 cbr 210 ------- 0 1.0 3.1 12 16
r 0.15602 2 3 cbr 210 ------- 0 1.0 3.1 10 14
+ 0.15625 1 2 cbr 210 ------- 0 1.0 3.1 15 19
- 0.15625 1 2 cbr 210 ------- 0 1.0 3.1 15 19
r 0.1576 0 2 tcp 1040 ------- 0 0.0 3.0 2 12
+ 0.1576 2 3 tcp 1040 ------- 0 0.0 3.0 2 12
- 0.1576 2 3 tcp 1040 ------- 0 0.0 3.0 2 12
r 0.15843 1 2 cbr 210 ------- 0 1.0 3.1 13 17
+ 0.15843 2 3 cbr 210 ------- 0 1.0 3.1 13 17
+ 0.16 1 2 cbr 210 ------- 0 1.0 3.1 16 20
- 0.16 1 2 cbr 210 ------- 0 1.0 3.1 16 20
r 0.16144 2 3 tcp 1040 ------- 0 0.0 3.0 1 11
+ 0.16144 3 2 ack 40 ------- 0 3.0 0.0 1 21
- 0.16144 3 2 ack 40 ------- 0 3.0 0.0 1 21
- 0.16176 2 3 cbr 210 ------- 0 1.0 3.1 13 17
r 0.16218 1 2 cbr 210 ------- 0 1.0 3.1 14 18
+ 0.16218 2 3 cbr 210 ------- 0 1.0 3.1 14 18
r 0.16228 2 3 cbr 210 ------- 0 1.0 3.1 11 15
- 0.1626 2 3 cbr 210 ------- 0 1.0 3.1 14 18
r 0.16352 2 3 cbr 210 ------- 0 1.0 3.1 12 16
+ 0.16375 1 2 cbr 210 ------- 0 1.0 3.1 17 22
- 0.16375 1 2 cbr 210 ------- 0 1.0 3.1 17 22
r 0.16593 1 2 cbr 210 ------- 0 1.0 3.1 15 19
+ 0.16593 2 3 cbr 210 ------- 0 1.0 3.1 15 19
- 0.16593 2 3 cbr 210 ------- 0 1.0 3.1 15 19
+ 0.1675 1 2 cbr 210 ------- 0 1.0 3.1 18 23
- 0.1675 1 2 cbr 210 ------- 0 1.0 3.1 18 23
r 0.1696 3 2 ack 40 ------- 0 3.0 0.0 1 21
+ 0.1696 2 0 ack 40 ------- 0 3.0 0.0 1 21
- 0.1696 2 0 ack 40 ------- 0 3.0 0.0 1 21
r 0.16968 1 2 cbr 210 ------- 0 1.0 3.1 16 20
+ 0.16968 2 3 cbr 210 ------- 0 1.0 3.1 16 20
- 0.16968 2 3 cbr 210 ------- 0 1.0 3.1 16 20
r 0.16976 2 3 tcp 1040 ------- 0 0.0 3.0 2 12
+ 0.16976 3 2 ack 40 ------- 0 3.0 0.0 2 24
- 0.16976 3 2 ack 40 ------- 0 3.0 0.0 2 24
r 0.1706 2 3 cbr 210 ------- 0 1.0 3.1 13 17
+ 0.17125 1 2 cbr 210 ------- 0 1.0 3.1 19 25
- 0.17125 1 2 cbr 210 ------- 0 1.0 3.1 19 25
r 0.17144 2 3 cbr 210 ------- 0 1.0 3.1 14 18
r 0.17343 1 2 cbr 210 ------- 0 1.0 3.1 17 22
+ 0.17343 2 3 cbr 210 ------- 0 1.0 3.1 17 22
- 0.17343 2 3 cbr 210 ------- 0 1.0 3.1 17 22
r 0.17477 2 3 cbr 210 ------- 0 1.0 3.1 15 19
+ 0.175 1 2 cbr 210 ------- 0 1.0 3.1 20 26
- 0.175 1 2 cbr 210 ------- 0 1.0 3.1 20 26
r 0.17718 1 2 cbr 210 ------- 0 1.0 3.1 18 23
+ 0.17718 2 3 cbr 210 ------- 0 1.0 3.1 18 23
- 0.17718 2 3 cbr 210 ------- 0 1.0 3.1 18 23
r 0.17792 2 0 ack 40 ------- 0 3.0 0.0 1 21
+ 0.17792 0 2 tcp 1040 ------- 0 0.0 3.0 3 27
- 0.17792 0 2 tcp 1040 ------- 0 0.0 3.0 3 27
+ 0.17792 0 2 tcp 1040 ------- 0 0.0 3.0 4 28
r 0.17792 3 2 ack 40 ------- 0 3.0 0.0 2 24
+ 0.17792 2 0 ack 40 ------- 0 3.0 0.0 2 24
- 0.17792 2 0 ack 40 ------- 0 3.0 0.0 2 24
r 0.17852 2 3 cbr 210 ------- 0 1.0 3.1 16 20
+ 0.17875 1 2 cbr 210 ------- 0 1.0 3.1 21 29
- 0.17875 1 2 cbr 210 ------- 0 1.0 3.1 21 29
r 0.18093 1 2 cbr 210 ------- 0 1.0 3.1 19 25
+ 0.18093 2 3 cbr 210 ------- 0 1.0 3.1 19 25
- 0.18093 2 3 cbr 210 ------- 0 1.0 3.1 19 25
r 0.18227 2 3 cbr 210 ------- 0 1.0 3.1 17 22
+ 0.1825 1 2 cbr 210 ------- 0 1.0 3.1 22 30
- 0.1825 1 2 cbr 210 ------- 0 1.0 3.1 22 30
r 0.18468 1 2 cbr 210 ------- 0 1.0 3.1 20 26
+ 0.18468 2 3 cbr 210 ------- 0 1.0 3.1 20 26
- 0.18468 2 3 cbr 210 ------- 0 1.0 3.1 20 26
r 0.18602 2 3 cbr 210 ------- 0 1.0 3.1 18 23
- 0.18624 0 2 tcp 1040 ------- 0 0.0 3.0 4 28
r 0.18624 2 0 ack 40 ------- 0 3.0 0.0 2 24
+ 0.18624 0 2 tcp 1040 ------- 0 0.0 3.0 5 31
+ 0.18624 0 2 tcp 1040 ------- 0 0.0 3.0 6 32
+ 0.18625 1 2 cbr 210 ------- 0 1.0 3.1 23 33
- 0.18625 1 2 cbr 210 ------- 0 1.0 3.1 23 33
r 0.18843 1 2 cbr 210 ------- 0 1.0 3.1 21 29
+ 0.18843 2 3 cbr 210 ------- 0 1.0 3.1 21 29
- 0.18843 2 3 cbr 210 ------- 0 1.0 3.1 21 29
r 0.18977 2 3 cbr 210 ------- 0 1.0 3.1 19 25
+ 0.19 1 2 cbr 210 ------- 0 1.0 3.1 24 34
- 0.19 1 2 cbr 210 ------- 0 1.0 3.1 24 34
r 0.19218 1 2 cbr 210 ------- 0 1.0 3.1 22 30
+ 0.19218 2 3 cbr 210 ------- 0 1.0 3.1 22 30
- 0.19218 2 3 cbr 210 ------- 0 1.0 3.1 22 30
r 0.19352 2 3 cbr 210 ------- 0 1.0 3.1 20 26
+ 0.19375 1 2 cbr 210 ------- 0 1.0 3.1 25 35
- 0.19375 1 2 cbr 210 ------- 0 1.0 3.1 25 35
r 0.19424 0 2 tcp 1040 ------- 0 0.0 3.0 3 27
+ 0.19424 2 3 tcp 1040 ------- 0 0.0 3.0 3 27
- 0.19424 2 3 tcp 1040 ------- 0 0.0 3.0 3 27
- 0.19456 0 2 tcp 1040 ------- 0 0.0 3.0 5 31
r 0.19593 1 2 cbr 210 ------- 0 1.0 3.1 23 33
+ 0.19593 2 3 cbr 210 ------- 0 1.0 3.1 23 33
r 0.19727 2 3 cbr 210 ------- 0 1.0 3.1 21 29
+ 0.1975 1 2 cbr 210 ------- 0 1.0 3.1 26 36
- 0.1975 1 2 cbr 210 ------- 0 1.0 3.1 26 36
- 0.1984 2 3 cbr 210 ------- 0 1.0 3.1 23 33
r 0.19968 1 2 cbr 210 ------- 0 1.0 3.1 24 34
+ 0.19968 2 3 cbr 210 ------- 0 1.0 3.1 24 34
- 0.19968 2 3 cbr 210 ------- 0 1.0 3.1 24 34
r 0.20102 2 3 cbr 210 ------- 0 1.0 3.1 22 30
+ 0.20125 1 2 cbr 210 ------- 0 1.0 3.1 27 37
- 0.20125 1 2 cbr 210 ------- 0 1.0 3.1 27 37
r 0.20256 0 2 tcp 1040 ------- 0 0.0 3.0 4 28
+ 0.20256 2 3 tcp 1040 ------- 0 0.0 3.0 4 28
- 0.20256 2 3 tcp 1040 ------- 0 0.0 3.0 4 28
- 0.20288 0 2 tcp 1040 ------- 0 0.0 3.0 6 32
r 0.20343 1 2 cbr 210 ------- 0 1.0 3.1 25 35
+ 0.20343 2 3 cbr 210 ------- 0 1.0 3.1 25 35
+ 0.205 1 2 cbr 210 ------- 0 1.0 3.1 28 38
- 0.205 1 2 cbr 210 ------- 0 1.0 3.1 28 38
r 0.2064 2 3 tcp 1040 ------- 0 0.0 3.0 3 27
+ 0.2064 3 2 ack 40 ------- 0 3.0 0.0 3 39
- 0.2064 3 2 ack 40 ------- 0 3.0 0.0 3 39
- 0.20672 2 3 cbr 210 ------- 0 1.0 3.1 25 35
r 0.20718 1 2 cbr 210 ------- 0 1.0 3.1 26 36
+ 0.20718 2 3 cbr 210 ------- 0 1.0 3.1 26 36
r 0.20724 2 3 cbr 210 ------- 0 1.0 3.1 23 33
- 0.20756 2 3 cbr 210 ------- 0 1.0 3.1 26 36
r 0.20852 2 3 cbr 210 ------- 0 1.0 3.1 24 34
+ 0.20875 1 2 cbr 210 ------- 0 1.0 3.1 29 40
- 0.20875 1 2 cbr 210 ------- 0 1.0 3.1 29 40
r 0.21088 0 2 tcp 1040 ------- 0 0.0 3.0 5 31
+ 0.21088 2 3 tcp 1040 ------- 0 0.0 3.0 5 31
- 0.21088 2 3 tcp 1040 ------- 0 0.0 3.0 5 31
r 0.21093 1 2 cbr 210 ------- 0 1.0 3.1 27 37
+ 0.21093 2 3 cbr 210 ------- 0 1.0 3.1 27 37
+ 0.2125 1 2 cbr 210 ------- 0 1.0 3.1 30 41
- 0.2125 1 2 cbr 210 ------- 0 1.0 3.1 30 41
r 0.21456 3 2 ack 40 ------- 0 3.0 0.0 3 39
+ 0.21456 2 0 ack 40 ------- 0 3.0 0.0 3 39
- 0.21456 2 0 ack 40 ------- 0 3.0 0.0 3 39
r 0.21468 1 2 cbr 210 ------- 0 1.0 3.1 28 38
+ 0.21468 2 3 cbr 210 ------- 0 1.0 3.1 28 38
r 0.21472 2 3 tcp 1040 ------- 0 0.0 3.0 4 28
+ 0.21472 3 2 ack 40 ------- 0 3.0 0.0 4 42
- 0.21472 3 2 ack 40 ------- 0 3.0 0.0 4 42
- 0.21504 2 3 cbr 210 ------- 0 1.0 3.1 27 37
r 0.21556 2 3 cbr 210 ------- 0 1.0 3.1 25 35
- 0.21588 2 3 cbr 210 ------- 0 1.0 3.1 28 38
+ 0.21625 1 2 cbr 210 ------- 0 1.0 3.1 31 43
- 0.21625 1 2 cbr 210 ------- 0 1.0 3.1 31 43
r 0.2164 2 3 cbr 210 ------- 0 1.0 3.1 26 36
r 0.21843 1 2 cbr 210 ------- 0 1.0 3.1 29 40
+ 0.21843 2 3 cbr 210 ------- 0 1.0 3.1 29 40
- 0.21843 2 3 cbr 210 ------- 0 1.0 3.1 29 40
r 0.2192 0 2 tcp 1040 ------- 0 0.0 3.0 6 32
+ 0.2192 2 3 tcp 1040 ------- 0 0.0 3.0 6 32
- 0.21927 2 3 tcp 1040 ------- 0 0.0 3.0 6 32
+ 0.22 1 2 cbr 210 ------- 0 1.0 3.1 32 44
- 0.22 1 2 cbr 210 ------- 0 1.0 3.1 32 44
r 0.22218 1 2 cbr 210 ------- 0 1.0 3.1 30 41
+ 0.22218 2 3 cbr 210 ------- 0 1.0 3.1 30 41
r 0.22288 2 0 ack 40 ------- 0 3.0 0.0 3 39
+ 0.22288 0 2 tcp 1040 ------- 0 0.0 3.0 7 45
- 0.22288 0 2 tcp 1040 ------- 0 0.0 3.0 7 45
+ 0.22288 0 2 tcp 1040 ------- 0 0.0 3.0 8 46
r 0.22288 3 2 ack 40 ------- 0 3.0 0.0 4 42
+ 0.22288 2 0 ack 40 ------- 0 3.0 0.0 4 42
- 0.22288 2 0 ack 40 ------- 0 3.0 0.0 4 42
r 0.22304 2 3 tcp 1040 ------- 0 0.0 3.0 5 31
+ 0.22304 3 2 ack 40 ------- 0 3.0 0.0 5 47
- 0.22304 3 2 ack 40 ------- 0 3.0 0.0 5 47
- 0.22343 2 3 cbr 210 ------- 0 1.0 3.1 30 41
+ 0.22375 1 2 cbr 210 ------- 0 1.0 3.1 33 48
- 0.22375 1 2 cbr 210 ------- 0 1.0 3.1 33 48
r 0.22388 2 3 cbr 210 ------- 0 1.0 3.1 27 37
r 0.22472 2 3 cbr 210 ------- 0 1.0 3.1 28 38
r 0.22593 1 2 cbr 210 ------- 0 1.0 3.1 31 43
+ 0.22593 2 3 cbr 210 ------- 0 1.0 3.1 31 43
- 0.22593 2 3 cbr 210 ------- 0 1.0 3.1 31 43
r 0.22727 2 3 cbr 210 ------- 0 1.0 3.1 29 40
+ 0.2275 1 2 cbr 210 ------- 0 1.0 3.1 34 49
- 0.2275 1 2 cbr 210 ------- 0 1.0 3.1 34 49
r 0.22968 1 2 cbr 210 ------- 0 1.0 3.1 32 44
+ 0.22968 2 3 cbr 210 ------- 0 1.0 3.1 32 44
- 0.22968 2 3 cbr 210 ------- 0 1.0 3.1 32 44
- 0.2312 0 2 tcp 1040 ------- 0 0.0 3.0 8 46
r 0.2312 2 0 ack 40 ------- 0 3.0 0.0 4 42
+ 0.2312 0 2 tcp 1040 ------- 0 0.0 3.0 9 50
+ 0.2312 0 2 tcp 1040 ------- 0 0.0 3.0 10 51
r 0.2312 3 2 ack 40 ------- 0 3.0 0.0 5 47
+ 0.2312 2 0 ack 40 ------- 0 3.0 0.0 5 47
- 0.2312 2 0 ack 40 ------- 0 3.0 0.0 5 47
+ 0.23125 1 2 cbr 210 ------- 0 1.0 3.1 35 52
- 0.23125 1 2 cbr 210 ------- 0 1.0 3.1 35 52
r 0.23143 2 3 tcp 1040 ------- 0 0.0 3.0 6 32
+ 0.23143 3 2 ack 40 ------- 0 3.0 0.0 6 53
- 0.23143 3 2 ack 40 ------- 0 3.0 0.0 6 53
r 0.23227 2 3 cbr 210 ------- 0 1.0 3.1 30 41
r 0.23343 1 2 cbr 210 ------- 0 1.0 3.1 33 48
+ 0.23343 2 3 cbr 210 ------- 0 1.0 3.1 33 48
- 0.23343 2 3 cbr 210 ------- 0 1.0 3.1 33 48
r 0.23477 2 3 cbr 210 ------- 0 1.0 3.1 31 43
+ 0.235 1 2 cbr 210 ------- 0 1.0 3.1 36 54
- 0.235 1 2 cbr 210 ------- 0 1.0 3.1 36 54
r 0.23718 1 2 cbr 210 ------- 0 1.0 3.1 34 49
+ 0.23718 2 3 cbr 210 ------- 0 1.0 3.1 34 49
- 0.23718 2 3 cbr 210 ------- 0 1.0 3.1 34 49
r 0.23852 2 3 cbr 210 ------- 0 1.0 3.1 32 44
+ 0.23875 1 2 cbr 210 ------- 0 1.0 3.1 37 55
- 0.23875 1 2 cbr 210 ------- 0 1.0 3.1 37 55
r 0.2392 0 2 tcp 1040 ------- 0 0.0 3.0 7 45
+ 0.2392 2 3 tcp 1040 ------- 0 0.0 3.0 7 45
- 0.2392 2 3 tcp 1040 ------- 0 0.0 3.0 7 45
- 0.23952 0 2 tcp 1040 ------- 0 0.0 3.0 9 50
r 0.23952 2 0 ack 40 ------- 0 3.0 0.0 5 47
+ 0.23952 0 2 tcp 1040 ------- 0 0.0 3.0 11 56
+ 0.23952 0 2 tcp 1040 ------- 0 0.0 3.0 12 57
d 0.23952 0 2 tcp 1040 ------- 0 0.0 3.0 12 57
r 0.23959 3 2 ack 40 ------- 0 3.0 0.0 6 53
+ 0.23959 2 0 ack 40 ------- 0 3.0 0.0 6 53
- 0.23959 2 0 ack 40 ------- 0 3.0 0.0 6 53
r 0.24093 1 2 cbr 210 ------- 0 1.0 3.1 35 52
+ 0.24093 2 3 cbr 210 ------- 0 1.0 3.1 35 52
r 0.24227 2 3 cbr 210 ------- 0 1.0 3.1 33 48
+ 0.2425 1 2 cbr 210 ------- 0 1.0 3.1 38 58
- 0.2425 1 2 cbr 210 ------- 0 1.0 3.1 38 58
- 0.24336 2 3 cbr 210 ------- 0 1.0 3.1 35 52
r 0.24468 1 2 cbr 210 ------- 0 1.0 3.1 36 54
+ 0.24468 2 3 cbr 210 ------- 0 1.0 3.1 36 54
- 0.24468 2 3 cbr 210 ------- 0 1.0 3.1 36 54
r 0.24602 2 3 cbr 210 ------- 0 1.0 3.1 34 49
+ 0.24625 1 2 cbr 210 ------- 0 1.0 3.1 39 59
- 0.24625 1 2 cbr 210 ------- 0 1.0 3.1 39 59
r 0.24752 0 2 tcp 1040 ------- 0 0.0 3.0 8 46
+ 0.24752 2 3 tcp 1040 ------- 0 0.0 3.0 8 46
- 0.24752 2 3 tcp 1040 ------- 0 0.0 3.0 8 46
- 0.24784 0 2 tcp 1040 ------- 0 0.0 3.0 10 51
r 0.24791 2 0 ack 40 ------- 0 3.0 0.0 6 53
+ 0.24791 0 2 tcp 1040 ------- 0 0.0 3.0 13 60
+ 0.24791 0 2 tcp 1040 ------- 0 0.0 3.0 14 61
d 0.24791 0 2 tcp 1040 ------- 0 0.0 3.0 14 61
r 0.24843 1 2 cbr 210 ------- 0 1.0 3.1 37 55
+ 0.24843 2 3 cbr 210 ------- 0 1.0 3.1 37 55
+ 0.25 1 2 cbr 210 ------- 0 1.0 3.1 40 62
- 0.25 1 2 cbr 210 ------- 0 1.0 3.1 40 62
r 0.25136 2 3 tcp 1040 ------- 0 0.0 3.0 7 45
+ 0.25136 3 2 ack 40 ------- 0 3.0 0.0 7 63
- 0.25136 3 2 ack 40 ------- 0 3.0 0.0 7 63
- 0.25168 2 3 cbr 210 ------- 0 1.0 3.1 37 55
r 0.25218 1 2 cbr 210 ------- 0 1.0 3.1 38 58
+ 0.25218 2 3 cbr 210 ------- 0 1.0 3.1 38 58
r 0.2522 2 3 cbr 210 ------- 0 1.0 3.1 35 52
- 0.25252 2 3 cbr 210 ------- 0 1.0 3.1 38 58
r 0.25352 2 3 cbr 210 ------- 0 1.0 3.1 36 54
+ 0.25375 1 2 cbr 210 ------- 0 1.0 3.1 41 64
- 0.25375 1 2 cbr 210 ------- 0 1.0 3.1 41 64
r 0.25584 0 2 tcp 1040 ------- 0 0.0 3.0 9 50
+ 0.25584 2 3 tcp 1040 ------- 0 0.0 3.0 9 50
- 0.25584 2 3 tcp 1040 ------- 0 0.0 3.0 9 50
r 0.25593 1 2 cbr 210 ------- 0 1.0 3.1 39 59
+ 0.25593 2 3 cbr 210 ------- 0 1.0 3.1 39 59
- 0.25616 0 2 tcp 1040 ------- 0 0.0 3.0 11 56
+ 0.2575 1 2 cbr 210 ------- 0 1.0 3.1 42 65
- 0.2575 1 2 cbr 210 ------- 0 1.0 3.1 42 65
r 0.25952 3 2 ack 40 ------- 0 3.0 0.0 7 63
+ 0.25952 2 0 ack 40 ------- 0 3.0 0.0 7 63
- 0.25952 2 0 ack 40 ------- 0 3.0 0.0 7 63
r 0.25968 2 3 tcp 1040 ------- 0 0.0 3.0 8 46
+ 0.25968 3 2 ack 40 ------- 0 3.0 0.0 8 66
- 0.25968 3 2 ack 40 ------- 0 3.0 0.0 8 66
r 0.25968 1 2 cbr 210 ------- 0 1.0 3.1 40 62
+ 0.25968 2 3 cbr 210 ------- 0 1.0 3.1 40 62
- 0.26 2 3 cbr 210 ------- 0 1.0 3.1 39 59
r 0.26052 2 3 cbr 210 ------- 0 1.0 3.1 37 55
- 0.26084 2 3 cbr 210 ------- 0 1.0 3.1 40 62
+ 0.26125 1 2 cbr 210 ------- 0 1.0 3.1 43 67
- 0.26125 1 2 cbr 210 ------- 0 1.0 3.1 43 67
r 0.26136 2 3 cbr 210 ------- 0 1.0 3.1 38 58
r 0.26343 1 2 cbr 210 ------- 0 1.0 3.1 41 64
+ 0.26343 2 3 cbr 210 ------- 0 1.0 3.1 41 64
- 0.26343 2 3 cbr 210 ------- 0 1.0 3.1 41 64
r 0.26416 0 2 tcp 1040 ------- 0 0.0 3.0 10 51
+ 0.26416 2 3 tcp 1040 ------- 0 0.0 3.0 10 51
- 0.26427 2 3 tcp 1040 ------- 0 0.0 3.0 10 51
- 0.26448 0 2 tcp 1040 ------- 0 0.0 3.0 13 60
+ 0.265 1 2 cbr 210 ------- 0 1.0 3.1 44 68
- 0.265 1 2 cbr 210 ------- 0 1.0 3.1 44 68
r 0.26718 1 2 cbr 210 ------- 0 1.0 3.1 42 65
+ 0.26718 2 3 cbr 210 ------- 0 1.0 3.1 42 65
r 0.26784 2 0 ack 40 ------- 0 3.0 0.0 7 63
+ 0.26784 0 2 tcp 1040 ------- 0 0.0 3.0 15 69
+ 0.26784 0 2 tcp 1040 ------- 0 0.0 3.0 16 70
r 0.26784 3 2 ack 40 ------- 0 3.0 0.0 8 66
+ 0.26784 2 0 ack 40 ------- 0 3.0 0.0 8 66
- 0.26784 2 0 ack 40 ------- 0 3.0 0.0 8 66
r 0.268 2 3 tcp 1040 ------- 0 0.0 3.0 9 50
+ 0.268 3 2 ack 40 ------- 0 3.0 0.0 9 71
- 0.268 3 2 ack 40 ------- 0 3.0 0.0 9 71
- 0.26843 2 3 cbr 210 ------- 0 1.0 3.1 42 65
+ 0.26875 1 2 cbr 210 ------- 0 1.0 3.1 45 72
- 0.26875 1 2 cbr 210 ------- 0 1.0 3.1 45 72
r 0.26884 2 3 cbr 210 ------- 0 1.0 3.1 39 59
r 0.26968 2 3 cbr 210 ------- 0 1.0 3.1 40 62
r 0.27093 1 2 cbr 210 ------- 0 1.0 3.1 43 67
+ 0.27093 2 3 cbr 210 ------- 0 1.0 3.1 43 67
- 0.27093 2 3 cbr 210 ------- 0 1.0 3.1 43 67
r 0.27227 2 3 cbr 210 ------- 0 1.0 3.1 41 64
r 0.27248 0 2 tcp 1040 ------- 0 0.0 3.0 11 56
+ 0.27248 2 3 tcp 1040 ------- 0 0.0 3.0 11 56
- 0.27248 2 3 tcp 1040 ------- 0 0.0 3.0 11 56
+ 0.2725 1 2 cbr 210 ------- 0 1.0 3.1 46 73
- 0.2725 1 2 cbr 210 ------- 0 1.0 3.1 46 73
- 0.2728 0 2 tcp 1040 ------- 0 0.0 3.0 15 69
r 0.27468 1 2 cbr 210 ------- 0 1.0 3.1 44 68
+ 0.27468 2 3 cbr 210 ------- 0 1.0 3.1 44 68
r 0.27616 2 0 ack 40 ------- 0 3.0 0.0 8 66
+ 0.27616 0 2 tcp 1040 ------- 0 0.0 3.0 17 74
+ 0.27616 0 2 tcp 1040 ------- 0 0.0 3.0 18 75
d 0.27616 0 2 tcp 1040 ------- 0 0.0 3.0 18 75
r 0.27616 3 2 ack 40 ------- 0 3.0 0.0 9 71
+ 0.27616 2 0 ack 40 ------- 0 3.0 0.0 9 71
- 0.27616 2 0 ack 40 ------- 0 3.0 0.0 9 71
+ 0.27625 1 2 cbr 210 ------- 0 1.0 3.1 47 76
- 0.27625 1 2 cbr 210 ------- 0 1.0 3.1 47 76
r 0.27643 2 3 tcp 1040 ------- 0 0.0 3.0 10 51
+ 0.27643 3 2 ack 40 ------- 0 3.0 0.0 10 77
- 0.27643 3 2 ack 40 ------- 0 3.0 0.0 10 77
- 0.27664 2 3 cbr 210 ------- 0 1.0 3.1 44 68
r 0.27727 2 3 cbr 210 ------- 0 1.0 3.1 42 65
r 0.27843 1 2 cbr 210 ------- 0 1.0 3.1 45 72
+ 0.27843 2 3 cbr 210 ------- 0 1.0 3.1 45 72
- 0.27843 2 3 cbr 210 ------- 0 1.0 3.1 45 72
r 0.27977 2 3 cbr 210 ------- 0 1.0 3.1 43 67
+ 0.28 1 2 cbr 210 ------- 0 1.0 3.1 48 78
- 0.28 1 2 cbr 210 ------- 0 1.0 3.1 48 78
r 0.2808 0 2 tcp 1040 ------- 0 0.0 3.0 13 60
+ 0.2808 2 3 tcp 1040 ------- 0 0.0 3.0 13 60
- 0.2808 2 3 tcp 1040 ------- 0 0.0 3.0 13 60
- 0.28112 0 2 tcp 1040 ------- 0 0.0 3.0 16 70
r 0.28218 1 2 cbr 210 ------- 0 1.0 3.1 46 73
+ 0.28218 2 3 cbr 210 ------- 0 1.0 3.1 46 73
+ 0.28375 1 2 cbr 210 ------- 0 1.0 3.1 49 79
- 0.28375 1 2 cbr 210 ------- 0 1.0 3.1 49 79
r 0.28448 2 0 ack 40 ------- 0 3.0 0.0 9 71
+ 0.28448 0 2 tcp 1040 ------- 0 0.0 3.0 19 80
+ 0.28448 0 2 tcp 1040 ------- 0 0.0 3.0 20 81
d 0.28448 0 2 tcp 1040 ------- 0 0.0 3.0 20 81
r 0.28459 3 2 ack 40 ------- 0 3.0 0.0 10 77
+ 0.28459 2 0 ack 40 ------- 0 3.0 0.0 10 77
- 0.28459 2 0 ack 40 ------- 0 3.0 0.0 10 77
r 0.28464 2 3 tcp 1040 ------- 0 0.0 3.0 11 56
+ 0.28464 3 2 ack 40 ------- 0 3.0 0.0 11 82
- 0.28464 3 2 ack 40 ------- 0 3.0 0.0 11 82
- 0.28496 2 3 cbr 210 ------- 0 1.0 3.1 46 73
r 0.28548 2 3 cbr 210 ------- 0 1.0 3.1 44 68
r 0.28593 1 2 cbr 210 ------- 0 1.0 3.1 47 76
+ 0.28593 2 3 cbr 210 ------- 0 1.0 3.1 47 76
- 0.28593 2 3 cbr 210 ------- 0 1.0 3.1 47 76
r 0.28727 2 3 cbr 210 ------- 0 1.0 3.1 45 72
+ 0.2875 1 2 cbr 210 ------- 0 1.0 3.1 50 83
- 0.2875 1 2 cbr 210 ------- 0 1.0 3.1 50 83
r 0.28912 0 2 tcp 1040 ------- 0 0.0 3.0 15 69
+ 0.28912 2 3 tcp 1040 ------- 0 0.0 3.0 15 69
- 0.28912 2 3 tcp 1040 ------- 0 0.0 3.0 15 69
- 0.28944 0 2 tcp 1040 ------- 0 0.0 3.0 17 74
r 0.28968 1 2 cbr 210 ------- 0 1.0 3.1 48 78
+ 0.28968 2 3 cbr 210 ------- 0 1.0 3.1 48 78
+ 0.29125 1 2 cbr 210 ------- 0 1.0 3.1 51 84
- 0.29125 1 2 cbr 210 ------- 0 1.0 3.1 51 84
r 0.2928 3 2 ack 40 ------- 0 3.0 0.0 11 82
+ 0.2928 2 0 ack 40 ------- 0 3.0 0.0 11 82
- 0.2928 2 0 ack 40 ------- 0 3.0 0.0 11 82
r 0.29291 2 0 ack 40 ------- 0 3.0 0.0 10 77
+ 0.29291 0 2 tcp 1040 ------- 0 0.0 3.0 21 85
+ 0.29291 0 2 tcp 1040 ------- 0 0.0 3.0 22 86
d 0.29291 0 2 tcp 1040 ------- 0 0.0 3.0 22 86
r 0.29296 2 3 tcp 1040 ------- 0 0.0 3.0 13 60
+ 0.29296 3 2 ack 40 ------- 0 3.0 0.0 11 87
- 0.29296 3 2 ack 40 ------- 0 3.0 0.0 11 87
- 0.29328 2 3 cbr 210 ------- 0 1.0 3.1 48 78
r 0.29343 1 2 cbr 210 ------- 0 1.0 3.1 49 79
+ 0.29343 2 3 cbr 210 ------- 0 1.0 3.1 49 79
r 0.2938 2 3 cbr 210 ------- 0 1.0 3.1 46 73
- 0.29412 2 3 cbr 210 ------- 0 1.0 3.1 49 79
r 0.29477 2 3 cbr 210 ------- 0 1.0 3.1 47 76
+ 0.295 1 2 cbr 210 ------- 0 1.0 3.1 52 88
- 0.295 1 2 cbr 210 ------- 0 1.0 3.1 52 88
r 0.29718 1 2 cbr 210 ------- 0 1.0 3.1 50 83
+ 0.29718 2 3 cbr 210 ------- 0 1.0 3.1 50 83
- 0.29718 2 3 cbr 210 ------- 0 1.0 3.1 50 83
r 0.29744 0 2 tcp 1040 ------- 0 0.0 3.0 16 70
+ 0.29744 2 3 tcp 1040 ------- 0 0.0 3.0 16 70
- 0.29776 0 2 tcp 1040 ------- 0 0.0 3.0 19 80
- 0.29802 2 3 tcp 1040 ------- 0 0.0 3.0 16 70
+ 0.29875 1 2 cbr 210 ------- 0 1.0 3.1 53 89
- 0.29875 1 2 cbr 210 ------- 0 1.0 3.1 53 89
r 0.30093 1 2 cbr 210 ------- 0 1.0 3.1 51 84
+ 0.30093 2 3 cbr 210 ------- 0 1.0 3.1 51 84
r 0.30112 2 0 ack 40 ------- 0 3.0 0.0 11 82
+ 0.30112 0 2 tcp 1040 ------- 0 0.0 3.0 23 90
+ 0.30112 0 2 tcp 1040 ------- 0 0.0 3.0 24 91
d 0.30112 0 2 tcp 1040 ------- 0 0.0 3.0 24 91
r 0.30112 3 2 ack 40 ------- 0 3.0 0.0 11 87
+ 0.30112 2 0 ack 40 ------- 0 3.0 0.0 11 87
- 0.30112 2 0 ack 40 ------- 0 3.0 0.0 11 87
r 0.30128 2 3 tcp 1040 ------- 0 0.0 3.0 15 69
+ 0.30128 3 2 ack 40 ------- 0 3.0 0.0 11 92
- 0.30128 3 2 ack 40 ------- 0 3.0 0.0 11 92
r 0.30212 2 3 cbr 210 ------- 0 1.0 3.1 48 78
- 0.30218 2 3 cbr 210 ------- 0 1.0 3.1 51 84
+ 0.3025 1 2 cbr 210 ------- 0 1.0 3.1 54 93
- 0.3025 1 2 cbr 210 ------- 0 1.0 3.1 54 93
r 0.30296 2 3 cbr 210 ------- 0 1.0 3.1 49 79
r 0.30468 1 2 cbr 210 ------- 0 1.0 3.1 52 88
+ 0.30468 2 3 cbr 210 ------- 0 1.0 3.1 52 88
- 0.30468 2 3 cbr 210 ------- 0 1.0 3.1 52 88
r 0.30576 0 2 tcp 1040 ------- 0 0.0 3.0 17 74
+ 0.30576 2 3 tcp 1040 ------- 0 0.0 3.0 17 74
- 0.30576 2 3 tcp 1040 ------- 0 0.0 3.0 17 74
r 0.30602 2 3 cbr 210 ------- 0 1.0 3.1 50 83
- 0.30608 0 2 tcp 1040 ------- 0 0.0 3.0 21 85
+ 0.30625 1 2 cbr 210 ------- 0 1.0 3.1 55 94
- 0.30625 1 2 cbr 210 ------- 0 1.0 3.1 55 94
r 0.30843 1 2 cbr 210 ------- 0 1.0 3.1 53 89
+ 0.30843 2 3 cbr 210 ------- 0 1.0 3.1 53 89
r 0.30944 2 0 ack 40 ------- 0 3.0 0.0 11 87
+ 0.30944 0 2 tcp 1040 ------- 0 0.0 3.0 25 95
r 0.30944 3 2 ack 40 ------- 0 3.0 0.0 11 92
+ 0.30944 2 0 ack 40 ------- 0 3.0 0.0 11 92
- 0.30944 2 0 ack 40 ------- 0 3.0 0.0 11 92
- 0.30992 2 3 cbr 210 ------- 0 1.0 3.1 53 89
+ 0.31 1 2 cbr 210 ------- 0 1.0 3.1 56 96
- 0.31 1 2 cbr 210 ------- 0 1.0 3.1 56 96
r 0.31018 2 3 tcp 1040 ------- 0 0.0 3.0 16 70
+ 0.31018 3 2 ack 40 ------- 0 3.0 0.0 11 97
- 0.31018 3 2 ack 40 ------- 0 3.0 0.0 11 97
r 0.31102 2 3 cbr 210 ------- 0 1.0 3.1 51 84
r 0.31218 1 2 cbr 210 ------- 0 1.0 3.1 54 93
+ 0.31218 2 3 cbr 210 ------- 0 1.0 3.1 54 93
- 0.31218 2 3 cbr 210 ------- 0 1.0 3.1 54 93
r 0.31352 2 3 cbr 210 ------- 0 1.0 3.1 52 88
+ 0.31375 1 2 cbr 210 ------- 0 1.0 3.1 57 98
- 0.31375 1 2 cbr 210 ------- 0 1.0 3.1 57 98
r 0.31408 0 2 tcp 1040 ------- 0 0.0 3.0 19 80
+ 0.31408 2 3 tcp 1040 ------- 0 0.0 3.0 19 80
- 0.31408 2 3 tcp 1040 ------- 0 0.0 3.0 19 80
- 0.3144 0 2 tcp 1040 ------- 0 0.0 3.0 23 90
r 0.31593 1 2 cbr 210 ------- 0 1.0 3.1 55 94
+ 0.31593 2 3 cbr 210 ------- 0 1.0 3.1 55 94
+ 0.3175 1 2 cbr 210 ------- 0 1.0 3.1 58 99
- 0.3175 1 2 cbr 210 ------- 0 1.0 3.1 58 99
r 0.31776 2 0 ack 40 ------- 0 3.0 0.0 11 92
+ 0.31776 0 2 tcp 1040 ------- 0 0.0 3.0 26 100
r 0.31792 2 3 tcp 1040 ------- 0 0.0 3.0 17 74
+ 0.31792 3 2 ack 40 ------- 0 3.0 0.0 11 101
- 0.31792 3 2 ack 40 ------- 0 3.0 0.0 11 101
- 0.31824 2 3 cbr 210 ------- 0 1.0 3.1 55 94
r 0.31834 3 2 ack 40 ------- 0 3.0 0.0 11 97
+ 0.31834 2 0 ack 40 ------- 0 3.0 0.0 11 97
- 0.31834 2 0 ack 40 ------- 0 3.0 0.0 11 97
r 0.31876 2 3 cbr 210 ------- 0 1.0 3.1 53 89
r 0.31968 1 2 cbr 210 ------- 0 1.0 3.1 56 96
+ 0.31968 2 3 cbr 210 ------- 0 1.0 3.1 56 96
- 0.31968 2 3 cbr 210 ------- 0 1.0 3.1 56 96
r 0.32102 2 3 cbr 210 ------- 0 1.0 3.1 54 93
+ 0.32125 1 2 cbr 210 ------- 0 1.0 3.1 59 102
- 0.32125 1 2 cbr 210 ------- 0 1.0 3.1 59 102
r 0.3224 0 2 tcp 1040 ------- 0 0.0 3.0 21 85
+ 0.3224 2 3 tcp 1040 ------- 0 0.0 3.0 21 85
- 0.3224 2 3 tcp 1040 ------- 0 0.0 3.0 21 85
- 0.32272 0 2 tcp 1040 ------- 0 0.0 3.0 25 95
r 0.32343 1 2 cbr 210 ------- 0 1.0 3.1 57 98
+ 0.32343 2 3 cbr 210 ------- 0 1.0 3.1 57 98
+ 0.325 1 2 cbr 210 ------- 0 1.0 3.1 60 103
- 0.325 1 2 cbr 210 ------- 0 1.0 3.1 60 103
r 0.32608 3 2 ack 40 ------- 0 3.0 0.0 11 101
+ 0.32608 2 0 ack 40 ------- 0 3.0 0.0 11 101
- 0.32608 2 0 ack 40 ------- 0 3.0 0.0 11 101
r 0.32624 2 3 tcp 1040 ------- 0 0.0 3.0 19 80
+ 0.32624 3 2 ack 40 ------- 0 3.0 0.0 11 104
- 0.32624 3 2 ack 40 ------- 0 3.0 0.0 11 104
- 0.32656 2 3 cbr 210 ------- 0 1.0 3.1 57 98
r 0.32666 2 0 ack 40 ------- 0 3.0 0.0 11 97
+ 0.32666 0 2 tcp 1040 ---A--- 0 0.0 3.0 12 105
r 0.32708 2 3 cbr 210 ------- 0 1.0 3.1 55 94
r 0.32718 1 2 cbr 210 ------- 0 1.0 3.1 58 99
+ 0.32718 2 3 cbr 210 ------- 0 1.0 3.1 58 99
- 0.3274 2 3 cbr 210 ------- 0 1.0 3.1 58 99
r 0.32852 2 3 cbr 210 ------- 0 1.0 3.1 56 96
+ 0.32875 1 2 cbr 210 ------- 0 1.0 3.1 61 106
- 0.32875 1 2 cbr 210 ------- 0 1.0 3.1 61 106
r 0.33072 0 2 tcp 1040 ------- 0 0.0 3.0 23 90
+ 0.33072 2 3 tcp 1040 ------- 0 0.0 3.0 23 90
- 0.33072 2 3 tcp 1040 ------- 0 0.0 3.0 23 90
r 0.33093 1 2 cbr 210 ------- 0 1.0 3.1 59 102
+ 0.33093 2 3 cbr 210 ------- 0 1.0 3.1 59 102
- 0.33104 0 2 tcp 1040 ------- 0 0.0 3.0 26 100
+ 0.3325 1 2 cbr 210 ------- 0 1.0 3.1 62 107
- 0.3325 1 2 cbr 210 ------- 0 1.0 3.1 62 107
r 0.3344 2 0 ack 40 ------- 0 3.0 0.0 11 101
r 0.3344 3 2 ack 40 ------- 0 3.0 0.0 11 104
+ 0.3344 2 0 ack 40 ------- 0 3.0 0.0 11 104
- 0.3344 2 0 ack 40 ------- 0 3.0 0.0 11 104
r 0.33456 2 3 tcp 1040 ------- 0 0.0 3.0 21 85
+ 0.33456 3 2 ack 40 ------- 0 3.0 0.0 11 108
- 0.33456 3 2 ack 40 ------- 0 3.0 0.0 11 108
r 0.33468 1 2 cbr 210 ------- 0 1.0 3.1 60 103
+ 0.33468 2 3 cbr 210 ------- 0 1.0 3.1 60 103
- 0.33488 2 3 cbr 210 ------- 0 1.0 3.1 59 102
r 0.3354 2 3 cbr 210 ------- 0 1.0 3.1 57 98
- 0.33572 2 3 cbr 210 ------- 0 1.0 3.1 60 103
r 0.33624 2 3 cbr 210 ------- 0 1.0 3.1 58 99
+ 0.33625 1 2 cbr 210 ------- 0 1.0 3.1 63 109
- 0.33625 1 2 cbr 210 ------- 0 1.0 3.1 63 109
r 0.33843 1 2 cbr 210 ------- 0 1.0 3.1 61 106
+ 0.33843 2 3 cbr 210 ------- 0 1.0 3.1 61 106
- 0.33843 2 3 cbr 210 ------- 0 1.0 3.1 61 106
r 0.33904 0 2 tcp 1040 ------- 0 0.0 3.0 25 95
+ 0.33904 2 3 tcp 1040 ------- 0 0.0 3.0 25 95
- 0.33927 2 3 tcp 1040 ------- 0 0.0 3.0 25 95
- 0.33936 0 2 tcp 1040 ---A--- 0 0.0 3.0 12 105
+ 0.34 1 2 cbr 210 ------- 0 1.0 3.1 64 110
- 0.34 1 2 cbr 210 ------- 0 1.0 3.1 64 110
r 0.34218 1 2 cbr 210 ------- 0 1.0 3.1 62 107
+ 0.34218 2 3 cbr 210 ------- 0 1.0 3.1 62 107
r 0.34272 2 0 ack 40 ------- 0 3.0 0.0 11 104
r 0.34272 3 2 ack 40 ------- 0 3.0 0.0 11 108
+ 0.34272 2 0 ack 40 ------- 0 3.0 0.0 11 108
- 0.34272 2 0 ack 40 ------- 0 3.0 0.0 11 108
r 0.34288 2 3 tcp 1040 ------- 0 0.0 3.0 23 90
+ 0.34288 3 2 ack 40 ------- 0 3.0 0.0 11 111
- 0.34288 3 2 ack 40 ------- 0 3.0 0.0 11 111
- 0.34343 2 3 cbr 210 ------- 0 1.0 3.1 62 107
r 0.34372 2 3 cbr 210 ------- 0 1.0 3.1 59 102
+ 0.34375 1 2 cbr 210 ------- 0 1.0 3.1 65 112
- 0.34375 1 2 cbr 210 ------- 0 1.0 3.1 65 112
r 0.34456 2 3 cbr 210 ------- 0 1.0 3.1 60 103
r 0.34593 1 2 cbr 210 ------- 0 1.0 3.1 63 109
+ 0.34593 2 3 cbr 210 ------- 0 1.0 3.1 63 109
- 0.34593 2 3 cbr 210 ------- 0 1.0 3.1 63 109
r 0.34727 2 3 cbr 210 ------- 0 1.0 3.1 61 106
r 0.34736 0 2 tcp 1040 ------- 0 0.0 3.0 26 100
+ 0.34736 2 3 tcp 1040 ------- 0 0.0 3.0 26 100
- 0.34736 2 3 tcp 1040 ------- 0 0.0 3.0 26 100
+ 0.3475 1 2 cbr 210 ------- 0 1.0 3.1 66 113
- 0.3475 1 2 cbr 210 ------- 0 1.0 3.1 66 113
r 0.34968 1 2 cbr 210 ------- 0 1.0 3.1 64 110
+ 0.34968 2 3 cbr 210 ------- 0 1.0 3.1 64 110
r 0.35104 2 0 ack 40 ------- 0 3.0 0.0 11 108
r 0.35104 3 2 ack 40 ------- 0 3.0 0.0 11 111
+ 0.35104 2 0 ack 40 ------- 0 3.0 0.0 11 111
- 0.35104 2 0 ack 40 ------- 0 3.0 0.0 11 111
+ 0.35125 1 2 cbr 210 ------- 0 1.0 3.1 67 114
- 0.35125 1 2 cbr 210 ------- 0 1.0 3.1 67 114
r 0.35143 2 3 tcp 1040 ------- 0 0.0 3.0 25 95
+ 0.35143 3 2 ack 40 ------- 0 3.0 0.0 11 115
- 0.35143 3 2 ack 40 ------- 0 3.0 0.0 11 115
- 0.35152 2 3 cbr 210 ------- 0 1.0 3.1 64 110
r 0.35227 2 3 cbr 210 ------- 0 1.0 3.1 62 107
r 0.35343 1 2 cbr 210 ------- 0 1.0 3.1 65 112
+ 0.35343 2 3 cbr 210 ------- 0 1.0 3.1 65 112
- 0.35343 2 3 cbr 210 ------- 0 1.0 3.1 65 112
r 0.35477 2 3 cbr 210 ------- 0 1.0 3.1 63 109
+ 0.355 1 2 cbr 210 ------- 0 1.0 3.1 68 116
- 0.355 1 2 cbr 210 ------- 0 1.0 3.1 68 116
r 0.35568 0 2 tcp 1040 ---A--- 0 0.0 3.0 12 105
+ 0.35568 2 3 tcp 1040 ---A--- 0 0.0 3.0 12 105
- 0.35568 2 3 tcp 1040 ---A--- 0 0.0 3.0 12 105
r 0.35718 1 2 cbr 210 ------- 0 1.0 3.1 66 113
+ 0.35718 2 3 cbr 210 ------- 0 1.0 3.1 66 113