+ 0.1 0 1 tcp 40 ------- 0 0.0 2.0 0 0
- 0.1 0 1 tcp 40 ------- 0 0.0 2.0 0 0
r 0.101032 0 1 tcp 40 ------- 0 0.0 2.0 0 0
+ 0.101032 1 2 tcp 40 ------- 0 0.0 2.0 0 0
- 0.101032 1 2 tcp 40 ------- 0 0.0 2.0 0 0
r 0.105064 1 2 tcp 40 ------- 0 0.0 2.0 0 0
+ 0.105064 2 1 ack 40 ------- 0 2.0 0.0 0 1
- 0.105064 2 1 ack 40 ------- 0 2.0 0.0 0 1
r 0.109096 2 1 ack 40 ------- 0 2.0 0.0 0 1
+ 0.109096 1 0 ack 40 ------- 0 2.0 0.0 0 1
- 0.109096 1 0 ack 40 ------- 0 2.0 0.0 0 1
r 0.110128 1 0 ack 40 ------- 0 2.0 0.0 0 1
+ 0.110128 0 1 tcp 1040 ------- 0 0.0 2.0 1 2
- 0.110128 0 1 tcp 1040 ------- 0 0.0 2.0 1 2
+ 0.110128 0 1 tcp 1040 ------- 0 0.0 2.0 2 3
- 0.11096 0 1 tcp 1040 ------- 0 0.0 2.0 2 3
r 0.11196 0 1 tcp 1040 ------- 0 0.0 2.0 1 2
+ 0.11196 1 2 tcp 1040 ------- 0 0.0 2.0 1 2
- 0.11196 1 2 tcp 1040 ------- 0 0.0 2.0 1 2
r 0.112792 0 1 tcp 1040 ------- 0 0.0 2.0 2 3
+ 0.112792 1 2 tcp 1040 ------- 0 0.0 2.0 2 3
- 0.112792 1 2 tcp 1040 ------- 0 0.0 2.0 2 3
r 0.116792 1 2 tcp 1040 ------- 0 0.0 2.0 1 2
+ 0.116792 2 1 ack 40 ------- 0 2.0 0.0 1 4
- 0.116792 2 1 ack 40 ------- 0 2.0 0.0 1 4
r 0.117624 1 2 tcp 1040 ------- 0 0.0 2.0 2 3
+ 0.117624 2 1 ack 40 ------- 0 2.0 0.0 2 5
- 0.117624 2 1 ack 40 ------- 0 2.0 0.0 2 5
r 0.120824 2 1 ack 40 ------- 0 2.0 0.0 1 4
+ 0.120824 1 0 ack 40 ------- 0 2.0 0.0 1 4
- 0.120824 1 0 ack 40 ------- 0 2.0 0.0 1 4
r 0.121656 2 1 ack 40 ------- 0 2.0 0.0 2 5
+ 0.121656 1 0 ack 40 ------- 0 2.0 0.0 2 5
- 0.121656 1 0 ack 40 ------- 0 2.0 0.0 2 5
r 0.121856 1 0 ack 40 ------- 0 2.0 0.0 1 4
+ 0.121856 0 1 tcp 1040 ------- 0 0.0 2.0 3 6
- 0.121856 0 1 tcp 1040 ------- 0 0.0 2.0 3 6
+ 0.121856 0 1 tcp 1040 ------- 0 0.0 2.0 4 7
r 0.122688 1 0 ack 40 ------- 0 2.0 0.0 2 5
+ 0.122688 0 1 tcp 1040 ------- 0 0.0 2.0 5 8
+ 0.122688 0 1 tcp 1040 ------- 0 0.0 2.0 6 9
d 0.122688 0 1 tcp 1040 ------- 0 0.0 2.0 6 9
- 0.122688 0 1 tcp 1040 ------- 0 0.0 2.0 4 7
- 0.12352 0 1 tcp 1040 ------- 0 0.0 2.0 5 8
r 0.123688 0 1 tcp 1040 ------- 0 0.0 2.0 3 6
+ 0.123688 1 2 tcp 1040 ------- 0 0.0 2.0 3 6
- 0.123688 1 2 tcp 1040 ------- 0 0.0 2.0 3 6
r 0.12452 0 1 tcp 1040 ------- 0 0.0 2.0 4 7
+ 0.12452 1 2 tcp 1040 ------- 0 0.0 2.0 4 7
- 0.12452 1 2 tcp 1040 ------- 0 0.0 2.0 4 7
r 0.125352 0 1 tcp 1040 ------- 0 0.0 2.0 5 8
+ 0.125352 1 2 tcp 1040 ------- 0 0.0 2.0 5 8
- 0.125352 1 2 tcp 1040 ------- 0 0.0 2.0 5 8
r 0.12852 1 2 tcp 1040 ------- 0 0.0 2.0 3 6
+ 0.12852 2 1 ack 40 ------- 0 2.0 0.0 3 10
- 0.12852 2 1 ack 40 ------- 0 2.0 0.0 3 10
r 0.129352 1 2 tcp 1040 ------- 0 0.0 2.0 4 7
+ 0.129352 2 1 ack 40 ------- 0 2.0 0.0 4 11
- 0.129352 2 1 ack 40 ------- 0 2.0 0.0 4 11
r 0.130184 1 2 tcp 1040 ------- 0 0.0 2.0 5 8
+ 0.130184 2 1 ack 40 ------- 0 2.0 0.0 5 12
- 0.130184 2 1 ack 40 ------- 0 2.0 0.0 5 12
r 0.132552 2 1 ack 40 ------- 0 2.0 0.0 3 10
+ 0.132552 1 0 ack 40 ------- 0 2.0 0.0 3 10
- 0.132552 1 0 ack 40 ------- 0 2.0 0.0 3 10
r 0.133384 2 1 ack 40 ------- 0 2.0 0.0 4 11
+ 0.133384 1 0 ack 40 ------- 0 2.0 0.0 4 11
- 0.133384 1 0 ack 40 ------- 0 2.0 0.0 4 11
r 0.133584 1 0 ack 40 ------- 0 2.0 0.0 3 10
+ 0.133584 0 1 tcp 1040 ------- 0 0.0 2.0 7 13
- 0.133584 0 1 tcp 1040 ------- 0 0.0 2.0 7 13
+ 0.133584 0 1 tcp 1040 ------- 0 0.0 2.0 8 14
r 0.134216 2 1 ack 40 ------- 0 2.0 0.0 5 12
+ 0.134216 1 0 ack 40 ------- 0 2.0 0.0 5 12
- 0.134216 1 0 ack 40 ------- 0 2.0 0.0 5 12
r 0.134416 1 0 ack 40 ------- 0 2.0 0.0 4 11
+ 0.134416 0 1 tcp 1040 ------- 0 0.0 2.0 9 15
+ 0.134416 0 1 tcp 1040 ------- 0 0.0 2.0 10 16
d 0.134416 0 1 tcp 1040 ------- 0 0.0 2.0 10 16
- 0.134416 0 1 tcp 1040 ------- 0 0.0 2.0 8 14
- 0.135248 0 1 tcp 1040 ------- 0 0.0 2.0 9 15
r 0.135248 1 0 ack 40 ------- 0 2.0 0.0 5 12
+ 0.135248 0 1 tcp 1040 ------- 0 0.0 2.0 11 17
+ 0.135248 0 1 tcp 1040 ------- 0 0.0 2.0 12 18
r 0.135416 0 1 tcp 1040 ------- 0 0.0 2.0 7 13
+ 0.135416 1 2 tcp 1040 ------- 0 0.0 2.0 7 13
- 0.135416 1 2 tcp 1040 ------- 0 0.0 2.0 7 13
- 0.13608 0 1 tcp 1040 ------- 0 0.0 2.0 11 17
r 0.136248 0 1 tcp 1040 ------- 0 0.0 2.0 8 14
+ 0.136248 1 2 tcp 1040 ------- 0 0.0 2.0 8 14
- 0.136248 1 2 tcp 1040 ------- 0 0.0 2.0 8 14
- 0.136912 0 1 tcp 1040 ------- 0 0.0 2.0 12 18
r 0.13708 0 1 tcp 1040 ------- 0 0.0 2.0 9 15
+ 0.13708 1 2 tcp 1040 ------- 0 0.0 2.0 9 15
- 0.13708 1 2 tcp 1040 ------- 0 0.0 2.0 9 15
r 0.137912 0 1 tcp 1040 ------- 0 0.0 2.0 11 17
+ 0.137912 1 2 tcp 1040 ------- 0 0.0 2.0 11 17
- 0.137912 1 2 tcp 1040 ------- 0 0.0 2.0 11 17
r 0.138744 0 1 tcp 1040 ------- 0 0.0 2.0 12 18
+ 0.138744 1 2 tcp 1040 ------- 0 0.0 2.0 12 18
- 0.138744 1 2 tcp 1040 ------- 0 0.0 2.0 12 18
r 0.140248 1 2 tcp 1040 ------- 0 0.0 2.0 7 13
+ 0.140248 2 1 ack 40 ------- 0 2.0 0.0 5 19
- 0.140248 2 1 ack 40 ------- 0 2.0 0.0 5 19
r 0.14108 1 2 tcp 1040 ------- 0 0.0 2.0 8 14
+ 0.14108 2 1 ack 40 ------- 0 2.0 0.0 5 20
- 0.14108 2 1 ack 40 ------- 0 2.0 0.0 5 20
r 0.141912 1 2 tcp 1040 ------- 0 0.0 2.0 9 15
+ 0.141912 2 1 ack 40 ------- 0 2.0 0.0 5 21
- 0.141912 2 1 ack 40 ------- 0 2.0 0.0 5 21
r 0.142744 1 2 tcp 1040 ------- 0 0.0 2.0 11 17
+ 0.142744 2 1 ack 40 ------- 0 2.0 0.0 5 22
- 0.142744 2 1 ack 40 ------- 0 2.0 0.0 5 22
r 0.143576 1 2 tcp 1040 ------- 0 0.0 2.0 12 18
+ 0.143576 2 1 ack 40 ------- 0 2.0 0.0 5 23
- 0.143576 2 1 ack 40 ------- 0 2.0 0.0 5 23
r 0.14428 2 1 ack 40 ------- 0 2.0 0.0 5 19
+ 0.14428 1 0 ack 40 ------- 0 2.0 0.0 5 19
- 0.14428 1 0 ack 40 ------- 0 2.0 0.0 5 19
r 0.145112 2 1 ack 40 ------- 0 2.0 0.0 5 20
+ 0.145112 1 0 ack 40 ------- 0 2.0 0.0 5 20
- 0.145112 1 0 ack 40 ------- 0 2.0 0.0 5 20
r 0.145312 1 0 ack 40 ------- 0 2.0 0.0 5 19
+ 0.145312 0 1 tcp 1040 ------- 0 0.0 2.0 13 24
- 0.145312 0 1 tcp 1040 ------- 0 0.0 2.0 13 24
r 0.145944 2 1 ack 40 ------- 0 2.0 0.0 5 21
+ 0.145944 1 0 ack 40 ------- 0 2.0 0.0 5 21
- 0.145944 1 0 ack 40 ------- 0 2.0 0.0 5 21
r 0.146144 1 0 ack 40 ------- 0 2.0 0.0 5 20
+ 0.146144 0 1 tcp 1040 ------- 0 0.0 2.0 14 25
- 0.146144 0 1 tcp 1040 ------- 0 0.0 2.0 14 25
r 0.146776 2 1 ack 40 ------- 0 2.0 0.0 5 22
+ 0.146776 1 0 ack 40 ------- 0 2.0 0.0 5 22
- 0.146776 1 0 ack 40 ------- 0 2.0 0.0 5 22
r 0.146976 1 0 ack 40 ------- 0 2.0 0.0 5 21
+ 0.146976 0 1 tcp 1040 ---A--- 0 0.0 2.0 6 26
- 0.146976 0 1 tcp 1040 ---A--- 0 0.0 2.0 6 26
r 0.147144 0 1 tcp 1040 ------- 0 0.0 2.0 13 24
+ 0.147144 1 2 tcp 1040 ------- 0 0.0 2.0 13 24
- 0.147144 1 2 tcp 1040 ------- 0 0.0 2.0 13 24
r 0.147608 2 1 ack 40 ------- 0 2.0 0.0 5 23
+ 0.147608 1 0 ack 40 ------- 0 2.0 0.0 5 23
- 0.147608 1 0 ack 40 ------- 0 2.0 0.0 5 23
r 0.147808 1 0 ack 40 ------- 0 2.0 0.0 5 22
r 0.147976 0 1 tcp 1040 ------- 0 0.0 2.0 14 25
+ 0.147976 1 2 tcp 1040 ------- 0 0.0 2.0 14 25
- 0.147976 1 2 tcp 1040 ------- 0 0.0 2.0 14 25
r 0.14864 1 0 ack 40 ------- 0 2.0 0.0 5 23
r 0.148808 0 1 tcp 1040 ---A--- 0 0.0 2.0 6 26
+ 0.148808 1 2 tcp 1040 ---A--- 0 0.0 2.0 6 26
- 0.148808 1 2 tcp 1040 ---A--- 0 0.0 2.0 6 26
r 0.151976 1 2 tcp 1040 ------- 0 0.0 2.0 13 24
+ 0.151976 2 1 ack 40 ------- 0 2.0 0.0 5 27
- 0.151976 2 1 ack 40 ------- 0 2.0 0.0 5 27
r 0.152808 1 2 tcp 1040 ------- 0 0.0 2.0 14 25
+ 0.152808 2 1 ack 40 ------- 0 2.0 0.0 5 28
- 0.152808 2 1 ack 40 ------- 0 2.0 0.0 5 28
r 0.15364 1 2 tcp 1040 ---A--- 0 0.0 2.0 6 26
+ 0.15364 2 1 ack 40 ------- 0 2.0 0.0 9 29
- 0.15364 2 1 ack 40 ------- 0 2.0 0.0 9 29
r 0.156008 2 1 ack 40 ------- 0 2.0 0.0 5 27
+ 0.156008 1 0 ack 40 ------- 0 2.0 0.0 5 27
- 0.156008 1 0 ack 40 ------- 0 2.0 0.0 5 27
r 0.15684 2 1 ack 40 ------- 0 2.0 0.0 5 28
+ 0.15684 1 0 ack 40 ------- 0 2.0 0.0 5 28
- 0.15684 1 0 ack 40 ------- 0 2.0 0.0 5 28
r 0.15704 1 0 ack 40 ------- 0 2.0 0.0 5 27
r 0.157672 2 1 ack 40 ------- 0 2.0 0.0 9 29
+ 0.157672 1 0 ack 40 ------- 0 2.0 0.0 9 29
- 0.157672 1 0 ack 40 ------- 0 2.0 0.0 9 29
r 0.157872 1 0 ack 40 ------- 0 2.0 0.0 5 28
r 0.158704 1 0 ack 40 ------- 0 2.0 0.0 9 29
+ 0.158704 0 1 tcp 1040 ------- 0 0.0 2.0 10 30
- 0.158704 0 1 tcp 1040 ------- 0 0.0 2.0 10 30
+ 0.158704 0 1 tcp 1040 ------- 0 0.0 2.0 11 31
- 0.159536 0 1 tcp 1040 ------- 0 0.0 2.0 11 31
r 0.160536 0 1 tcp 1040 ------- 0 0.0 2.0 10 30
+ 0.160536 1 2 tcp 1040 ------- 0 0.0 2.0 10 30
- 0.160536 1 2 tcp 1040 ------- 0 0.0 2.0 10 30
r 0.161368 0 1 tcp 1040 ------- 0 0.0 2.0 11 31
+ 0.161368 1 2 tcp 1040 ------- 0 0.0 2.0 11 31
- 0.161368 1 2 tcp 1040 ------- 0 0.0 2.0 11 31
r 0.165368 1 2 tcp 1040 ------- 0 0.0 2.0 10 30
+ 0.165368 2 1 ack 40 ------- 0 2.0 0.0 14 32
- 0.165368 2 1 ack 40 ------- 0 2.0 0.0 14 32
r 0.1662 1 2 tcp 1040 ------- 0 0.0 2.0 11 31
+ 0.1662 2 1 ack 40 ------- 0 2.0 0.0 14 33
- 0.1662 2 1 ack 40 ------- 0 2.0 0.0 14 33
r 0.1694 2 1 ack 40 ------- 0 2.0 0.0 14 32
+ 0.1694 1 0 ack 40 ------- 0 2.0 0.0 14 32
- 0.1694 1 0 ack 40 ------- 0 2.0 0.0 14 32
r 0.170232 2 1 ack 40 ------- 0 2.0 0.0 14 33
+ 0.170232 1 0 ack 40 ------- 0 2.0 0.0 14 33
- 0.170232 1 0 ack 40 ------- 0 2.0 0.0 14 33
r 0.170432 1 0 ack 40 ------- 0 2.0 0.0 14 32
+ 0.170432 0 1 tcp 1040 ------- 0 0.0 2.0 15 34
- 0.170432 0 1 tcp 1040 ------- 0 0.0 2.0 15 34
+ 0.170432 0 1 tcp 1040 ------- 0 0.0 2.0 16 35
+ 0.170432 0 1 tcp 1040 ------- 0 0.0 2.0 17 36
r 0.171264 1 0 ack 40 ------- 0 2.0 0.0 14 33
+ 0.171264 0 1 tcp 1040 ------- 0 0.0 2.0 18 37
d 0.171264 0 1 tcp 1040 ------- 0 0.0 2.0 18 37
- 0.171264 0 1 tcp 1040 ------- 0 0.0 2.0 16 35
- 0.172096 0 1 tcp 1040 ------- 0 0.0 2.0 17 36
r 0.172264 0 1 tcp 1040 ------- 0 0.0 2.0 15 34
+ 0.172264 1 2 tcp 1040 ------- 0 0.0 2.0 15 34
- 0.172264 1 2 tcp 1040 ------- 0 0.0 2.0 15 34
r 0.173096 0 1 tcp 1040 ------- 0 0.0 2.0 16 35
+ 0.173096 1 2 tcp 1040 ------- 0 0.0 2.0 16 35
- 0.173096 1 2 tcp 1040 ------- 0 0.0 2.0 16 35
r 0.173928 0 1 tcp 1040 ------- 0 0.0 2.0 17 36
+ 0.173928 1 2 tcp 1040 ------- 0 0.0 2.0 17 36
- 0.173928 1 2 tcp 1040 ------- 0 0.0 2.0 17 36
r 0.177096 1 2 tcp 1040 ------- 0 0.0 2.0 15 34
+ 0.177096 2 1 ack 40 ------- 0 2.0 0.0 15 38
- 0.177096 2 1 ack 40 ------- 0 2.0 0.0 15 38
r 0.177928 1 2 tcp 1040 ------- 0 0.0 2.0 16 35
+ 0.177928 2 1 ack 40 ------- 0 2.0 0.0 16 39
- 0.177928 2 1 ack 40 ------- 0 2.0 0.0 16 39
r 0.17876 1 2 tcp 1040 ------- 0 0.0 2.0 17 36
+ 0.17876 2 1 ack 40 ------- 0 2.0 0.0 17 40
- 0.17876 2 1 ack 40 ------- 0 2.0 0.0 17 40
r 0.181128 2 1 ack 40 ------- 0 2.0 0.0 15 38
+ 0.181128 1 0 ack 40 ------- 0 2.0 0.0 15 38
- 0.181128 1 0 ack 40 ------- 0 2.0 0.0 15 38
r 0.18196 2 1 ack 40 ------- 0 2.0 0.0 16 39
+ 0.18196 1 0 ack 40 ------- 0 2.0 0.0 16 39
- 0.18196 1 0 ack 40 ------- 0 2.0 0.0 16 39
r 0.18216 1 0 ack 40 ------- 0 2.0 0.0 15 38
r 0.182792 2 1 ack 40 ------- 0 2.0 0.0 17 40
+ 0.182792 1 0 ack 40 ------- 0 2.0 0.0 17 40
- 0.182792 1 0 ack 40 ------- 0 2.0 0.0 17 40
r 0.182992 1 0 ack 40 ------- 0 2.0 0.0 16 39
+ 0.182992 0 1 tcp 1040 ------- 0 0.0 2.0 19 41
- 0.182992 0 1 tcp 1040 ------- 0 0.0 2.0 19 41
r 0.183824 1 0 ack 40 ------- 0 2.0 0.0 17 40
+ 0.183824 0 1 tcp 1040 ------- 0 0.0 2.0 20 42
- 0.183824 0 1 tcp 1040 ------- 0 0.0 2.0 20 42
r 0.184824 0 1 tcp 1040 ------- 0 0.0 2.0 19 41
+ 0.184824 1 2 tcp 1040 ------- 0 0.0 2.0 19 41
- 0.184824 1 2 tcp 1040 ------- 0 0.0 2.0 19 41
r 0.185656 0 1 tcp 1040 ------- 0 0.0 2.0 20 42
+ 0.185656 1 2 tcp 1040 ------- 0 0.0 2.0 20 42
- 0.185656 1 2 tcp 1040 ------- 0 0.0 2.0 20 42
r 0.189656 1 2 tcp 1040 ------- 0 0.0 2.0 19 41
+ 0.189656 2 1 ack 40 ------- 0 2.0 0.0 17 43
- 0.189656 2 1 ack 40 ------- 0 2.0 0.0 17 43
r 0.190488 1 2 tcp 1040 ------- 0 0.0 2.0 20 42
+ 0.190488 2 1 ack 40 ------- 0 2.0 0.0 17 44
- 0.190488 2 1 ack 40 ------- 0 2.0 0.0 17 44
r 0.193688 2 1 ack 40 ------- 0 2.0 0.0 17 43
+ 0.193688 1 0 ack 40 ------- 0 2.0 0.0 17 43
- 0.193688 1 0 ack 40 ------- 0 2.0 0.0 17 43
r 0.19452 2 1 ack 40 ------- 0 2.0 0.0 17 44
+ 0.19452 1 0 ack 40 ------- 0 2.0 0.0 17 44
- 0.19452 1 0 ack 40 ------- 0 2.0 0.0 17 44
r 0.19472 1 0 ack 40 ------- 0 2.0 0.0 17 43
+ 0.19472 0 1 tcp 1040 ------- 0 0.0 2.0 21 45
- 0.19472 0 1 tcp 1040 ------- 0 0.0 2.0 21 45
r 0.195552 1 0 ack 40 ------- 0 2.0 0.0 17 44
+ 0.195552 0 1 tcp 1040 ------- 0 0.0 2.0 22 46
- 0.195552 0 1 tcp 1040 ------- 0 0.0 2.0 22 46
r 0.196552 0 1 tcp 1040 ------- 0 0.0 2.0 21 45
+ 0.196552 1 2 tcp 1040 ------- 0 0.0 2.0 21 45
- 0.196552 1 2 tcp 1040 ------- 0 0.0 2.0 21 45
r 0.197384 0 1 tcp 1040 ------- 0 0.0 2.0 22 46
+ 0.197384 1 2 tcp 1040 ------- 0 0.0 2.0 22 46
- 0.197384 1 2 tcp 1040 ------- 0 0.0 2.0 22 46
r 0.201384 1 2 tcp 1040 ------- 0 0.0 2.0 21 45
+ 0.201384 2 1 ack 40 ------- 0 2.0 0.0 17 47
- 0.201384 2 1 ack 40 ------- 0 2.0 0.0 17 47
r 0.202216 1 2 tcp 1040 ------- 0 0.0 2.0 22 46
+ 0.202216 2 1 ack 40 ------- 0 2.0 0.0 17 48
- 0.202216 2 1 ack 40 ------- 0 2.0 0.0 17 48
r 0.205416 2 1 ack 40 ------- 0 2.0 0.0 17 47
+ 0.205416 1 0 ack 40 ------- 0 2.0 0.0 17 47
- 0.205416 1 0 ack 40 ------- 0 2.0 0.0 17 47
r 0.206248 2 1 ack 40 ------- 0 2.0 0.0 17 48
+ 0.206248 1 0 ack 40 ------- 0 2.0 0.0 17 48
- 0.206248 1 0 ack 40 ------- 0 2.0 0.0 17 48
r 0.206448 1 0 ack 40 ------- 0 2.0 0.0 17 47
+ 0.206448 0 1 tcp 1040 ---A--- 0 0.0 2.0 18 49
- 0.206448 0 1 tcp 1040 ---A--- 0 0.0 2.0 18 49
r 0.20728 1 0 ack 40 ------- 0 2.0 0.0 17 48
r 0.20828 0 1 tcp 1040 ---A--- 0 0.0 2.0 18 49
+ 0.20828 1 2 tcp 1040 ---A--- 0 0.0 2.0 18 49
- 0.20828 1 2 tcp 1040 ---A--- 0 0.0 2.0 18 49
r 0.213112 1 2 tcp 1040 ---A--- 0 0.0 2.0 18 49
+ 0.213112 2 1 ack 40 ------- 0 2.0 0.0 22 50
- 0.213112 2 1 ack 40 ------- 0 2.0 0.0 22 50
r 0.217144 2 1 ack 40 ------- 0 2.0 0.0 22 50
+ 0.217144 1 0 ack 40 ------- 0 2.0 0.0 22 50
- 0.217144 1 0 ack 40 ------- 0 2.0 0.0 22 50
r 0.218176 1 0 ack 40 ------- 0 2.0 0.0 22 50
+ 0.218176 0 1 tcp 1040 ------- 0 0.0 2.0 23 51
- 0.218176 0 1 tcp 1040 ------- 0 0.0 2.0 23 51
+ 0.218176 0 1 tcp 1040 ------- 0 0.0 2.0 24 52
- 0.219008 0 1 tcp 1040 ------- 0 0.0 2.0 24 52
r 0.220008 0 1 tcp 1040 ------- 0 0.0 2.0 23 51
+ 0.220008 1 2 tcp 1040 ------- 0 0.0 2.0 23 51
- 0.220008 1 2 tcp 1040 ------- 0 0.0 2.0 23 51
r 0.22084 0 1 tcp 1040 ------- 0 0.0 2.0 24 52
+ 0.22084 1 2 tcp 1040 ------- 0 0.0 2.0 24 52
- 0.22084 1 2 tcp 1040 ------- 0 0.0 2.0 24 52
r 0.22484 1 2 tcp 1040 ------- 0 0.0 2.0 23 51
+ 0.22484 2 1 ack 40 ------- 0 2.0 0.0 23 53
- 0.22484 2 1 ack 40 ------- 0 2.0 0.0 23 53
r 0.225672 1 2 tcp 1040 ------- 0 0.0 2.0 24 52
+ 0.225672 2 1 ack 40 ------- 0 2.0 0.0 24 54
- 0.225672 2 1 ack 40 ------- 0 2.0 0.0 24 54
r 0.228872 2 1 ack 40 ------- 0 2.0 0.0 23 53
+ 0.228872 1 0 ack 40 ------- 0 2.0 0.0 23 53
- 0.228872 1 0 ack 40 ------- 0 2.0 0.0 23 53
r 0.229704 2 1 ack 40 ------- 0 2.0 0.0 24 54
+ 0.229704 1 0 ack 40 ------- 0 2.0 0.0 24 54
- 0.229704 1 0 ack 40 ------- 0 2.0 0.0 24 54
r 0.229904 1 0 ack 40 ------- 0 2.0 0.0 23 53
+ 0.229904 0 1 tcp 1040 ------- 0 0.0 2.0 25 55
- 0.229904 0 1 tcp 1040 ------- 0 0.0 2.0 25 55
r 0.230736 1 0 ack 40 ------- 0 2.0 0.0 24 54
+ 0.230736 0 1 tcp 1040 ------- 0 0.0 2.0 26 56
- 0.230736 0 1 tcp 1040 ------- 0 0.0 2.0 26 56
r 0.231736 0 1 tcp 1040 ------- 0 0.0 2.0 25 55
+ 0.231736 1 2 tcp 1040 ------- 0 0.0 2.0 25 55
- 0.231736 1 2 tcp 1040 ------- 0 0.0 2.0 25 55
r 0.232568 0 1 tcp 1040 ------- 0 0.0 2.0 26 56
+ 0.232568 1 2 tcp 1040 ------- 0 0.0 2.0 26 56
- 0.232568 1 2 tcp 1040 ------- 0 0.0 2.0 26 56
r 0.236568 1 2 tcp 1040 ------- 0 0.0 2.0 25 55
+ 0.236568 2 1 ack 40 ------- 0 2.0 0.0 25 57
- 0.236568 2 1 ack 40 ------- 0 2.0 0.0 25 57
r 0.2374 1 2 tcp 1040 ------- 0 0.0 2.0 26 56
+ 0.2374 2 1 ack 40 ------- 0 2.0 0.0 26 58
- 0.2374 2 1 ack 40 ------- 0 2.0 0.0 26 58
r 0.2406 2 1 ack 40 ------- 0 2.0 0.0 25 57
+ 0.2406 1 0 ack 40 ------- 0 2.0 0.0 25 57
- 0.2406 1 0 ack 40 ------- 0 2.0 0.0 25 57
r 0.241432 2 1 ack 40 ------- 0 2.0 0.0 26 58
+ 0.241432 1 0 ack 40 ------- 0 2.0 0.0 26 58
- 0.241432 1 0 ack 40 ------- 0 2.0 0.0 26 58
r 0.241632 1 0 ack 40 ------- 0 2.0 0.0 25 57
+ 0.241632 0 1 tcp 1040 ------- 0 0.0 2.0 27 59
- 0.241632 0 1 tcp 1040 ------- 0 0.0 2.0 27 59
+ 0.241632 0 1 tcp 1040 ------- 0 0.0 2.0 28 60
r 0.242464 1 0 ack 40 ------- 0 2.0 0.0 26 58
+ 0.242464 0 1 tcp 1040 ------- 0 0.0 2.0 29 61
- 0.242464 0 1 tcp 1040 ------- 0 0.0 2.0 28 60
- 0.243296 0 1 tcp 1040 ------- 0 0.0 2.0 29 61
r 0.243464 0 1 tcp 1040 ------- 0 0.0 2.0 27 59
+ 0.243464 1 2 tcp 1040 ------- 0 0.0 2.0 27 59
- 0.243464 1 2 tcp 1040 ------- 0 0.0 2.0 27 59
r 0.244296 0 1 tcp 1040 ------- 0 0.0 2.0 28 60
+ 0.244296 1 2 tcp 1040 ------- 0 0.0 2.0 28 60
- 0.244296 1 2 tcp 1040 ------- 0 0.0 2.0 28 60
r 0.245128 0 1 tcp 1040 ------- 0 0.0 2.0 29 61
+ 0.245128 1 2 tcp 1040 ------- 0 0.0 2.0 29 61
- 0.245128 1 2 tcp 1040 ------- 0 0.0 2.0 29 61
r 0.248296 1 2 tcp 1040 ------- 0 0.0 2.0 27 59
+ 0.248296 2 1 ack 40 ------- 0 2.0 0.0 27 62
- 0.248296 2 1 ack 40 ------- 0 2.0 0.0 27 62
r 0.249128 1 2 tcp 1040 ------- 0 0.0 2.0 28 60
+ 0.249128 2 1 ack 40 ------- 0 2.0 0.0 28 63
- 0.249128 2 1 ack 40 ------- 0 2.0 0.0 28 63
r 0.24996 1 2 tcp 1040 ------- 0 0.0 2.0 29 61
+ 0.24996 2 1 ack 40 ------- 0 2.0 0.0 29 64
- 0.24996 2 1 ack 40 ------- 0 2.0 0.0 29 64
r 0.252328 2 1 ack 40 ------- 0 2.0 0.0 27 62
+ 0.252328 1 0 ack 40 ------- 0 2.0 0.0 27 62
- 0.252328 1 0 ack 40 ------- 0 2.0 0.0 27 62
r 0.25316 2 1 ack 40 ------- 0 2.0 0.0 28 63
+ 0.25316 1 0 ack 40 ------- 0 2.0 0.0 28 63
- 0.25316 1 0 ack 40 ------- 0 2.0 0.0 28 63
r 0.25336 1 0 ack 40 ------- 0 2.0 0.0 27 62
+ 0.25336 0 1 tcp 1040 ------- 0 0.0 2.0 30 65
- 0.25336 0 1 tcp 1040 ------- 0 0.0 2.0 30 65
r 0.253992 2 1 ack 40 ------- 0 2.0 0.0 29 64
+ 0.253992 1 0 ack 40 ------- 0 2.0 0.0 29 64
- 0.253992 1 0 ack 40 ------- 0 2.0 0.0 29 64
r 0.254192 1 0 ack 40 ------- 0 2.0 0.0 28 63
+ 0.254192 0 1 tcp 1040 ------- 0 0.0 2.0 31 66
+ 0.254192 0 1 tcp 1040 ------- 0 0.0 2.0 32 67
- 0.254192 0 1 tcp 1040 ------- 0 0.0 2.0 31 66
r 0.255024 1 0 ack 40 ------- 0 2.0 0.0 29 64
+ 0.255024 0 1 tcp 1040 ------- 0 0.0 2.0 33 68
- 0.255024 0 1 tcp 1040 ------- 0 0.0 2.0 32 67
r 0.255192 0 1 tcp 1040 ------- 0 0.0 2.0 30 65
+ 0.255192 1 2 tcp 1040 ------- 0 0.0 2.0 30 65
- 0.255192 1 2 tcp 1040 ------- 0 0.0 2.0 30 65
- 0.255856 0 1 tcp 1040 ------- 0 0.0 2.0 33 68
r 0.256024 0 1 tcp 1040 ------- 0 0.0 2.0 31 66
+ 0.256024 1 2 tcp 1040 ------- 0 0.0 2.0 31 66
- 0.256024 1 2 tcp 1040 ------- 0 0.0 2.0 31 66
r 0.256856 0 1 tcp 1040 ------- 0 0.0 2.0 32 67
+ 0.256856 1 2 tcp 1040 ------- 0 0.0 2.0 32 67
- 0.256856 1 2 tcp 1040 ------- 0 0.0 2.0 32 67
r 0.257688 0 1 tcp 1040 ------- 0 0.0 2.0 33 68
+ 0.257688 1 2 tcp 1040 ------- 0 0.0 2.0 33 68
- 0.257688 1 2 tcp 1040 ------- 0 0.0 2.0 33 68
r 0.260024 1 2 tcp 1040 ------- 0 0.0 2.0 30 65
+ 0.260024 2 1 ack 40 ------- 0 2.0 0.0 30 69
- 0.260024 2 1 ack 40 ------- 0 2.0 0.0 30 69
r 0.260856 1 2 tcp 1040 ------- 0 0.0 2.0 31 66
+ 0.260856 2 1 ack 40 ------- 0 2.0 0.0 31 70
- 0.260856 2 1 ack 40 ------- 0 2.0 0.0 31 70
r 0.261688 1 2 tcp 1040 ------- 0 0.0 2.0 32 67
+ 0.261688 2 1 ack 40 ------- 0 2.0 0.0 32 71
- 0.261688 2 1 ack 40 ------- 0 2.0 0.0 32 71
r 0.26252 1 2 tcp 1040 ------- 0 0.0 2.0 33 68
+ 0.26252 2 1 ack 40 ------- 0 2.0 0.0 33 72
- 0.26252 2 1 ack 40 ------- 0 2.0 0.0 33 72
r 0.264056 2 1 ack 40 ------- 0 2.0 0.0 30 69
+ 0.264056 1 0 ack 40 ------- 0 2.0 0.0 30 69
- 0.264056 1 0 ack 40 ------- 0 2.0 0.0 30 69
r 0.264888 2 1 ack 40 ------- 0 2.0 0.0 31 70
+ 0.264888 1 0 ack 40 ------- 0 2.0 0.0 31 70
- 0.264888 1 0 ack 40 ------- 0 2.0 0.0 31 70
r 0.265088 1 0 ack 40 ------- 0 2.0 0.0 30 69
+ 0.265088 0 1 tcp 1040 ------- 0 0.0 2.0 34 73
- 0.265088 0 1 tcp 1040 ------- 0 0.0 2.0 34 73
r 0.26572 2 1 ack 40 ------- 0 2.0 0.0 32 71
+ 0.26572 1 0 ack 40 ------- 0 2.0 0.0 32 71
- 0.26572 1 0 ack 40 ------- 0 2.0 0.0 32 71
r 0.26592 1 0 ack 40 ------- 0 2.0 0.0 31 70
+ 0.26592 0 1 tcp 1040 ------- 0 0.0 2.0 35 74
- 0.26592 0 1 tcp 1040 ------- 0 0.0 2.0 35 74
r 0.266552 2 1 ack 40 ------- 0 2.0 0.0 33 72
+ 0.266552 1 0 ack 40 ------- 0 2.0 0.0 33 72
- 0.266552 1 0 ack 40 ------- 0 2.0 0.0 33 72
r 0.266752 1 0 ack 40 ------- 0 2.0 0.0 32 71
+ 0.266752 0 1 tcp 1040 ------- 0 0.0 2.0 36 75
- 0.266752 0 1 tcp 1040 ------- 0 0.0 2.0 36 75
r 0.26692 0 1 tcp 1040 ------- 0 0.0 2.0 34 73
+ 0.26692 1 2 tcp 1040 ------- 0 0.0 2.0 34 73
- 0.26692 1 2 tcp 1040 ------- 0 0.0 2.0 34 73
r 0.267584 1 0 ack 40 ------- 0 2.0 0.0 33 72
+ 0.267584 0 1 tcp 1040 ------- 0 0.0 2.0 37 76
+ 0.267584 0 1 tcp 1040 ------- 0 0.0 2.0 38 77
- 0.267584 0 1 tcp 1040 ------- 0 0.0 2.0 37 76
r 0.267752 0 1 tcp 1040 ------- 0 0.0 2.0 35 74
+ 0.267752 1 2 tcp 1040 ------- 0 0.0 2.0 35 74
- 0.267752 1 2 tcp 1040 ------- 0 0.0 2.0 35 74
- 0.268416 0 1 tcp 1040 ------- 0 0.0 2.0 38 77
r 0.268584 0 1 tcp 1040 ------- 0 0.0 2.0 36 75
+ 0.268584 1 2 tcp 1040 ------- 0 0.0 2.0 36 75
- 0.268584 1 2 tcp 1040 ------- 0 0.0 2.0 36 75
r 0.269416 0 1 tcp 1040 ------- 0 0.0 2.0 37 76
+ 0.269416 1 2 tcp 1040 ------- 0 0.0 2.0 37 76
- 0.269416 1 2 tcp 1040 ------- 0 0.0 2.0 37 76
r 0.270248 0 1 tcp 1040 ------- 0 0.0 2.0 38 77
+ 0.270248 1 2 tcp 1040 ------- 0 0.0 2.0 38 77
- 0.270248 1 2 tcp 1040 ------- 0 0.0 2.0 38 77
r 0.271752 1 2 tcp 1040 ------- 0 0.0 2.0 34 73
+ 0.271752 2 1 ack 40 ------- 0 2.0 0.0 34 78
- 0.271752 2 1 ack 40 ------- 0 2.0 0.0 34 78
r 0.272584 1 2 tcp 1040 ------- 0 0.0 2.0 35 74
+ 0.272584 2 1 ack 40 ------- 0 2.0 0.0 35 79
- 0.272584 2 1 ack 40 ------- 0 2.0 0.0 35 79
r 0.273416 1 2 tcp 1040 ------- 0 0.0 2.0 36 75
+ 0.273416 2 1 ack 40 ------- 0 2.0 0.0 36 80
- 0.273416 2 1 ack 40 ------- 0 2.0 0.0 36 80
r 0.274248 1 2 tcp 1040 ------- 0 0.0 2.0 37 76
+ 0.274248 2 1 ack 40 ------- 0 2.0 0.0 37 81
- 0.274248 2 1 ack 40 ------- 0 2.0 0.0 37 81
r 0.27508 1 2 tcp 1040 ------- 0 0.0 2.0 38 77
+ 0.27508 2 1 ack 40 ------- 0 2.0 0.0 38 82
- 0.27508 2 1 ack 40 ------- 0 2.0 0.0 38 82
r 0.275784 2 1 ack 40 ------- 0 2.0 0.0 34 78
+ 0.275784 1 0 ack 40 ------- 0 2.0 0.0 34 78
- 0.275784 1 0 ack 40 ------- 0 2.0 0.0 34 78
r 0.276616 2 1 ack 40 ------- 0 2.0 0.0 35 79
+ 0.276616 1 0 ack 40 ------- 0 2.0 0.0 35 79
- 0.276616 1 0 ack 40 ------- 0 2.0 0.0 35 79
r 0.276816 1 0 ack 40 ------- 0 2.0 0.0 34 78
+ 0.276816 0 1 tcp 1040 ------- 0 0.0 2.0 39 83
- 0.276816 0 1 tcp 1040 ------- 0 0.0 2.0 39 83
r 0.277448 2 1 ack 40 ------- 0 2.0 0.0 36 80
+ 0.277448 1 0 ack 40 ------- 0 2.0 0.0 36 80
- 0.277448 1 0 ack 40 ------- 0 2.0 0.0 36 80
r 0.277648 1 0 ack 40 ------- 0 2.0 0.0 35 79
+ 0.277648 0 1 tcp 1040 ------- 0 0.0 2.0 40 84
- 0.277648 0 1 tcp 1040 ------- 0 0.0 2.0 40 84
r 0.27828 2 1 ack 40 ------- 0 2.0 0.0 37 81
+ 0.27828 1 0 ack 40 ------- 0 2.0 0.0 37 81
- 0.27828 1 0 ack 40 ------- 0 2.0 0.0 37 81
r 0.27848 1 0 ack 40 ------- 0 2.0 0.0 36 80
+ 0.27848 0 1 tcp 1040 ------- 0 0.0 2.0 41 85
- 0.27848 0 1 tcp 1040 ------- 0 0.0 2.0 41 85
r 0.278648 0 1 tcp 1040 ------- 0 0.0 2.0 39 83
+ 0.278648 1 2 tcp 1040 ------- 0 0.0 2.0 39 83
- 0.278648 1 2 tcp 1040 ------- 0 0.0 2.0 39 83
r 0.279112 2 1 ack 40 ------- 0 2.0 0.0 38 82
+ 0.279112 1 0 ack 40 ------- 0 2.0 0.0 38 82
- 0.279112 1 0 ack 40 ------- 0 2.0 0.0 38 82
r 0.279312 1 0 ack 40 ------- 0 2.0 0.0 37 81
+ 0.279312 0 1 tcp 1040 ------- 0 0.0 2.0 42 86
- 0.279312 0 1 tcp 1040 ------- 0 0.0 2.0 42 86
r 0.27948 0 1 tcp 1040 ------- 0 0.0 2.0 40 84
+ 0.27948 1 2 tcp 1040 ------- 0 0.0 2.0 40 84
- 0.27948 1 2 tcp 1040 ------- 0 0.0 2.0 40 84
r 0.280144 1 0 ack 40 ------- 0 2.0 0.0 38 82
+ 0.280144 0 1 tcp 1040 ------- 0 0.0 2.0 43 87
+ 0.280144 0 1 tcp 1040 ------- 0 0.0 2.0 44 88
- 0.280144 0 1 tcp 1040 ------- 0 0.0 2.0 43 87
r 0.280312 0 1 tcp 1040 ------- 0 0.0 2.0 41 85
+ 0.280312 1 2 tcp 1040 ------- 0 0.0 2.0 41 85
- 0.280312 1 2 tcp 1040 ------- 0 0.0 2.0 41 85
- 0.280976 0 1 tcp 1040 ------- 0 0.0 2.0 44 88
r 0.281144 0 1 tcp 1040 ------- 0 0.0 2.0 42 86
+ 0.281144 1 2 tcp 1040 ------- 0 0.0 2.0 42 86
- 0.281144 1 2 tcp 1040 ------- 0 0.0 2.0 42 86
r 0.281976 0 1 tcp 1040 ------- 0 0.0 2.0 43 87
+ 0.281976 1 2 tcp 1040 ------- 0 0.0 2.0 43 87
- 0.281976 1 2 tcp 1040 ------- 0 0.0 2.0 43 87
r 0.282808 0 1 tcp 1040 ------- 0 0.0 2.0 44 88
+ 0.282808 1 2 tcp 1040 ------- 0 0.0 2.0 44 88
- 0.282808 1 2 tcp 1040 ------- 0 0.0 2.0 44 88
r 0.28348 1 2 tcp 1040 ------- 0 0.0 2.0 39 83
+ 0.28348 2 1 ack 40 ------- 0 2.0 0.0 39 89
- 0.28348 2 1 ack 40 ------- 0 2.0 0.0 39 89
r 0.284312 1 2 tcp 1040 ------- 0 0.0 2.0 40 84
+ 0.284312 2 1 ack 40 ------- 0 2.0 0.0 40 90
- 0.284312 2 1 ack 40 ------- 0 2.0 0.0 40 90
r 0.285144 1 2 tcp 1040 ------- 0 0.0 2.0 41 85
+ 0.285144 2 1 ack 40 ------- 0 2.0 0.0 41 91
- 0.285144 2 1 ack 40 ------- 0 2.0 0.0 41 91
r 0.285976 1 2 tcp 1040 ------- 0 0.0 2.0 42 86
+ 0.285976 2 1 ack 40 ------- 0 2.0 0.0 42 92
- 0.285976 2 1 ack 40 ------- 0 2.0 0.0 42 92
r 0.286808 1 2 tcp 1040 ------- 0 0.0 2.0 43 87
+ 0.286808 2 1 ack 40 ------- 0 2.0 0.0 43 93
- 0.286808 2 1 ack 40 ------- 0 2.0 0.0 43 93
r 0.287512 2 1 ack 40 ------- 0 2.0 0.0 39 89
+ 0.287512 1 0 ack 40 ------- 0 2.0 0.0 39 89
- 0.287512 1 0 ack 40 ------- 0 2.0 0.0 39 89
r 0.28764 1 2 tcp 1040 ------- 0 0.0 2.0 44 88
+ 0.28764 2 1 ack 40 ------- 0 2.0 0.0 44 94
- 0.28764 2 1 ack 40 ------- 0 2.0 0.0 44 94
r 0.288344 2 1 ack 40 ------- 0 2.0 0.0 40 90
+ 0.288344 1 0 ack 40 ------- 0 2.0 0.0 40 90
- 0.288344 1 0 ack 40 ------- 0 2.0 0.0 40 90
r 0.288544 1 0 ack 40 ------- 0 2.0 0.0 39 89
+ 0.288544 0 1 tcp 1040 ------- 0 0.0 2.0 45 95
- 0.288544 0 1 tcp 1040 ------- 0 0.0 2.0 45 95
r 0.289176 2 1 ack 40 ------- 0 2.0 0.0 41 91
+ 0.289176 1 0 ack 40 ------- 0 2.0 0.0 41 91
- 0.289176 1 0 ack 40 ------- 0 2.0 0.0 41 91
r 0.289376 1 0 ack 40 ------- 0 2.0 0.0 40 90
+ 0.289376 0 1 tcp 1040 ------- 0 0.0 2.0 46 96
- 0.289376 0 1 tcp 1040 ------- 0 0.0 2.0 46 96
r 0.290008 2 1 ack 40 ------- 0 2.0 0.0 42 92
+ 0.290008 1 0 ack 40 ------- 0 2.0 0.0 42 92
- 0.290008 1 0 ack 40 ------- 0 2.0 0.0 42 92
r 0.290208 1 0 ack 40 ------- 0 2.0 0.0 41 91
+ 0.290208 0 1 tcp 1040 ------- 0 0.0 2.0 47 97
- 0.290208 0 1 tcp 1040 ------- 0 0.0 2.0 47 97
r 0.290376 0 1 tcp 1040 ------- 0 0.0 2.0 45 95
+ 0.290376 1 2 tcp 1040 ------- 0 0.0 2.0 45 95
- 0.290376 1 2 tcp 1040 ------- 0 0.0 2.0 45 95
r 0.29084 2 1 ack 40 ------- 0 2.0 0.0 43 93
+ 0.29084 1 0 ack 40 ------- 0 2.0 0.0 43 93
- 0.29084 1 0 ack 40 ------- 0 2.0 0.0 43 93
r 0.29104 1 0 ack 40 ------- 0 2.0 0.0 42 92
+ 0.29104 0 1 tcp 1040 ------- 0 0.0 2.0 48 98
- 0.29104 0 1 tcp 1040 ------- 0 0.0 2.0 48 98
r 0.291208 0 1 tcp 1040 ------- 0 0.0 2.0 46 96
+ 0.291208 1 2 tcp 1040 ------- 0 0.0 2.0 46 96
- 0.291208 1 2 tcp 1040 ------- 0 0.0 2.0 46 96
r 0.291672 2 1 ack 40 ------- 0 2.0 0.0 44 94
+ 0.291672 1 0 ack 40 ------- 0 2.0 0.0 44 94
- 0.291672 1 0 ack 40 ------- 0 2.0 0.0 44 94
r 0.291872 1 0 ack 40 ------- 0 2.0 0.0 43 93
+ 0.291872 0 1 tcp 1040 ------- 0 0.0 2.0 49 99
- 0.291872 0 1 tcp 1040 ------- 0 0.0 2.0 49 99
r 0.29204 0 1 tcp 1040 ------- 0 0.0 2.0 47 97
+ 0.29204 1 2 tcp 1040 ------- 0 0.0 2.0 47 97
- 0.29204 1 2 tcp 1040 ------- 0 0.0 2.0 47 97
r 0.292704 1 0 ack 40 ------- 0 2.0 0.0 44 94
+ 0.292704 0 1 tcp 1040 ------- 0 0.0 2.0 50 100
+ 0.292704 0 1 tcp 1040 ------- 0 0.0 2.0 51 101
- 0.292704 0 1 tcp 1040 ------- 0 0.0 2.0 50 100
r 0.292872 0 1 tcp 1040 ------- 0 0.0 2.0 48 98
+ 0.292872 1 2 tcp 1040 ------- 0 0.0 2.0 48 98
- 0.292872 1 2 tcp 1040 ------- 0 0.0 2.0 48 98
- 0.293536 0 1 tcp 1040 ------- 0 0.0 2.0 51 101
r 0.293704 0 1 tcp 1040 ------- 0 0.0 2.0 49 99
+ 0.293704 1 2 tcp 1040 ------- 0 0.0 2.0 49 99
- 0.293704 1 2 tcp 1040 ------- 0 0.0 2.0 49 99
r 0.294536 0 1 tcp 1040 ------- 0 0.0 2.0 50 100
+ 0.294536 1 2 tcp 1040 ------- 0 0.0 2.0 50 100
- 0.294536 1 2 tcp 1040 ------- 0 0.0 2.0 50 100
r 0.295208 1 2 tcp 1040 ------- 0 0.0 2.0 45 95
+ 0.295208 2 1 ack 40 ------- 0 2.0 0.0 45 102
- 0.295208 2 1 ack 40 ------- 0 2.0 0.0 45 102
r 0.295368 0 1 tcp 1040 ------- 0 0.0 2.0 51 101
+ 0.295368 1 2 tcp 1040 ------- 0 0.0 2.0 51 101
- 0.295368 1 2 tcp 1040 ------- 0 0.0 2.0 51 101
r 0.29604 1 2 tcp 1040 ------- 0 0.0 2.0 46 96
+ 0.29604 2 1 ack 40 ------- 0 2.0 0.0 46 103
- 0.29604 2 1 ack 40 ------- 0 2.0 0.0 46 103
r 0.296872 1 2 tcp 1040 ------- 0 0.0 2.0 47 97
+ 0.296872 2 1 ack 40 ------- 0 2.0 0.0 47 104
- 0.296872 2 1 ack 40 ------- 0 2.0 0.0 47 104
r 0.297704 1 2 tcp 1040 ------- 0 0.0 2.0 48 98
+ 0.297704 2 1 ack 40 ------- 0 2.0 0.0 48 105
- 0.297704 2 1 ack 40 ------- 0 2.0 0.0 48 105
r 0.298536 1 2 tcp 1040 ------- 0 0.0 2.0 49 99
+ 0.298536 2 1 ack 40 ------- 0 2.0 0.0 49 106
- 0.298536 2 1 ack 40 ------- 0 2.0 0.0 49 106
r 0.29924 2 1 ack 40 ------- 0 2.0 0.0 45 102
+ 0.29924 1 0 ack 40 ------- 0 2.0 0.0 45 102
- 0.29924 1 0 ack 40 ------- 0 2.0 0.0 45 102
r 0.299368 1 2 tcp 1040 ------- 0 0.0 2.0 50 100
+ 0.299368 2 1 ack 40 ------- 0 2.0 0.0 50 107
- 0.299368 2 1 ack 40 ------- 0 2.0 0.0 50 107
r 0.300072 2 1 ack 40 ------- 0 2.0 0.0 46 103
+ 0.300072 1 0 ack 40 ------- 0 2.0 0.0 46 103
- 0.300072 1 0 ack 40 ------- 0 2.0 0.0 46 103
r 0.3002 1 2 tcp 1040 ------- 0 0.0 2.0 51 101
+ 0.3002 2 1 ack 40 ------- 0 2.0 0.0 51 108
- 0.3002 2 1 ack 40 ------- 0 2.0 0.0 51 108
r 0.300272 1 0 ack 40 ------- 0 2.0 0.0 45 102
+ 0.300272 0 1 tcp 1040 ------- 0 0.0 2.0 52 109
- 0.300272 0 1 tcp 1040 ------- 0 0.0 2.0 52 109
r 0.300904 2 1 ack 40 ------- 0 2.0 0.0 47 104
+ 0.300904 1 0 ack 40 ------- 0 2.0 0.0 47 104
- 0.300904 1 0 ack 40 ------- 0 2.0 0.0 47 104
r 0.301104 1 0 ack 40 ------- 0 2.0 0.0 46 103
+ 0.301104 0 1 tcp 1040 ------- 0 0.0 2.0 53 110
- 0.301104 0 1 tcp 1040 ------- 0 0.0 2.0 53 110
r 0.301736 2 1 ack 40 ------- 0 2.0 0.0 48 105
+ 0.301736 1 0 ack 40 ------- 0 2.0 0.0 48 105
- 0.301736 1 0 ack 40 ------- 0 2.0 0.0 48 105
r 0.301936 1 0 ack 40 ------- 0 2.0 0.0 47 104
+ 0.301936 0 1 tcp 1040 ------- 0 0.0 2.0 54 111
- 0.301936 0 1 tcp 1040 ------- 0 0.0 2.0 54 111
r 0.302104 0 1 tcp 1040 ------- 0 0.0 2.0 52 109
+ 0.302104 1 2 tcp 1040 ------- 0 0.0 2.0 52 109
- 0.302104 1 2 tcp 1040 ------- 0 0.0 2.0 52 109
r 0.302568 2 1 ack 40 ------- 0 2.0 0.0 49 106
+ 0.302568 1 0 ack 40 ------- 0 2.0 0.0 49 106
- 0.302568 1 0 ack 40 ------- 0 2.0 0.0 49 106
r 0.302768 1 0 ack 40 ------- 0 2.0 0.0 48 105
+ 0.302768 0 1 tcp 1040 ------- 0 0.0 2.0 55 112
- 0.302768 0 1 tcp 1040 ------- 0 0.0 2.0 55 112