V -t * -v 1.0a5 -a 0
A -t * -n 1 -p 0 -o 0x7fffffff -c 30 -a 1
A -t * -h 1 -m 1073741823 -s 0
n -t * -a 0 -s 0 -S UP -v circle -c black -i black
n -t * -a 1 -s 1 -S UP -v circle -c black -i black
n -t * -a 2 -s 2 -S UP -v circle -c black -i black
l -t * -s 0 -d 1 -S UP -r 10000000 -D 0.001 -c black
l -t * -s 1 -d 2 -S UP -r 10000000 -D 0.0040000000000000001 -c black
q -t * -s 2 -d 1 -a 0.5
q -t * -s 1 -d 2 -a 0.5
+ -t 0.1 -s 0 -d 1 -p tcp -e 40 -c 0 -i 0 -a 0 -x {0.0 2.0 0 ------- null}
- -t 0.1 -s 0 -d 1 -p tcp -e 40 -c 0 -i 0 -a 0 -x {0.0 2.0 0 ------- null}
h -t 0.1 -s 0 -d 1 -p tcp -e 40 -c 0 -i 0 -a 0 -x {0.0 2.0 -1 ------- null}
r -t 0.101032 -s 0 -d 1 -p tcp -e 40 -c 0 -i 0 -a 0 -x {0.0 2.0 0 ------- null}
+ -t 0.101032 -s 1 -d 2 -p tcp -e 40 -c 0 -i 0 -a 0 -x {0.0 2.0 0 ------- null}
- -t 0.101032 -s 1 -d 2 -p tcp -e 40 -c 0 -i 0 -a 0 -x {0.0 2.0 0 ------- null}
h -t 0.101032 -s 1 -d 2 -p tcp -e 40 -c 0 -i 0 -a 0 -x {0.0 2.0 -1 ------- null}
r -t 0.105064 -s 1 -d 2 -p tcp -e 40 -c 0 -i 0 -a 0 -x {0.0 2.0 0 ------- null}
+ -t 0.105064 -s 2 -d 1 -p ack -e 40 -c 0 -i 1 -a 0 -x {2.0 0.0 0 ------- null}
- -t 0.105064 -s 2 -d 1 -p ack -e 40 -c 0 -i 1 -a 0 -x {2.0 0.0 0 ------- null}
h -t 0.105064 -s 2 -d 1 -p ack -e 40 -c 0 -i 1 -a 0 -x {2.0 0.0 -1 ------- null}
r -t 0.109096 -s 2 -d 1 -p ack -e 40 -c 0 -i 1 -a 0 -x {2.0 0.0 0 ------- null}
+ -t 0.109096 -s 1 -d 0 -p ack -e 40 -c 0 -i 1 -a 0 -x {2.0 0.0 0 ------- null}
- -t 0.109096 -s 1 -d 0 -p ack -e 40 -c 0 -i 1 -a 0 -x {2.0 0.0 0 ------- null}
h -t 0.109096 -s 1 -d 0 -p ack -e 40 -c 0 -i 1 -a 0 -x {2.0 0.0 -1 ------- null}
r -t 0.110128 -s 1 -d 0 -p ack -e 40 -c 0 -i 1 -a 0 -x {2.0 0.0 0 ------- null}
+ -t 0.110128 -s 0 -d 1 -p tcp -e 1040 -c 0 -i 2 -a 0 -x {0.0 2.0 1 ------- null}
- -t 0.110128 -s 0 -d 1 -p tcp -e 1040 -c 0 -i 2 -a 0 -x {0.0 2.0 1 ------- null}
h -t 0.110128 -s 0 -d 1 -p tcp -e 1040 -c 0 -i 2 -a 0 -x {0.0 2.0 -1 ------- null}
+ -t 0.110128 -s 0 -d 1 -p tcp -e 1040 -c 0 -i 3 -a 0 -x {0.0 2.0 2 ------- null}
- -t 0.11096 -s 0 -d 1 -p tcp -e 1040 -c 0 -i 3 -a 0 -x {0.0 2.0 2 ------- null}
h -t 0.11096 -s 0 -d 1 -p tcp -e 1040 -c 0 -i 3 -a 0 -x {0.0 2.0 -1 ------- null}
r -t 0.11196 -s 0 -d 1 -p tcp -e 1040 -c 0 -i 2 -a 0 -x {0.0 2.0 1 ------- null}
+ -t 0.11196 -s 1 -d 2 -p tcp -e 1040 -c 0 -i 2 -a 0 -x {0.0 2.0 1 ------- null}
- -t 0.11196 -s 1 -d 2 -p tcp -e 1040 -c 0 -i 2 -a 0 -x {0.0 2.0 1 ------- null}
h -t 0.11196 -s 1 -d 2 -p tcp -e 1040 -c 0 -i 2 -a 0 -x {0.0 2.0 -1 ------- null}
r -t 0.112792 -s 0 -d 1 -p tcp -e 1040 -c 0 -i 3 -a 0 -x {0.0 2.0 2 ------- null}
+ -t 0.112792 -s 1 -d 2 -p tcp -e 1040 -c 0 -i 3 -a 0 -x {0.0 2.0 2 ------- null}
- -t 0.112792 -s 1 -d 2 -p tcp -e 1040 -c 0 -i 3 -a 0 -x {0.0 2.0 2 ------- null}
h -t 0.112792 -s 1 -d 2 -p tcp -e 1040 -c 0 -i 3 -a 0 -x {0.0 2.0 -1 ------- null}
r -t 0.116792 -s 1 -d 2 -p tcp -e 1040 -c 0 -i 2 -a 0 -x {0.0 2.0 1 ------- null}
+ -t 0.116792 -s 2 -d 1 -p ack -e 40 -c 0 -i 4 -a 0 -x {2.0 0.0 1 ------- null}
- -t 0.116792 -s 2 -d 1 -p ack -e 40 -c 0 -i 4 -a 0 -x {2.0 0.0 1 ------- null}
h -t 0.116792 -s 2 -d 1 -p ack -e 40 -c 0 -i 4 -a 0 -x {2.0 0.0 -1 ------- null}
r -t 0.117624 -s 1 -d 2 -p tcp -e 1040 -c 0 -i 3 -a 0 -x {0.0 2.0 2 ------- null}
+ -t 0.117624 -s 2 -d 1 -p ack -e 40 -c 0 -i 5 -a 0 -x {2.0 0.0 2 ------- null}
- -t 0.117624 -s 2 -d 1 -p ack -e 40 -c 0 -i 5 -a 0 -x {2.0 0.0 2 ------- null}
h -t 0.117624 -s 2 -d 1 -p ack -e 40 -c 0 -i 5 -a 0 -x {2.0 0.0 -1 ------- null}
r -t 0.120824 -s 2 -d 1 -p ack -e 40 -c 0 -i 4 -a 0 -x {2.0 0.0 1 ------- null}
+ -t 0.120824 -s 1 -d 0 -p ack -e 40 -c 0 -i 4 -a 0 -x {2.0 0.0 1 ------- null}
- -t 0.120824 -s 1 -d 0 -p ack -e 40 -c 0 -i 4 -a 0 -x {2.0 0.0 1 ------- null}
h -t 0.120824 -s 1 -d 0 -p ack -e 40 -c 0 -i 4 -a 0 -x {2.0 0.0 -1 ------- null}
r -t 0.121656 -s 2 -d 1 -p ack -e 40 -c 0 -i 5 -a 0 -x {2.0 0.0 2 ------- null}
+ -t 0.121656 -s 1 -d 0 -p ack -e 40 -c 0 -i 5 -a 0 -x {2.0 0.0 2 ------- null}
- -t 0.121656 -s 1 -d 0 -p ack -e 40 -c 0 -i 5 -a 0 -x {2.0 0.0 2 ------- null}
h -t 0.121656 -s 1 -d 0 -p ack -e 40 -c 0 -i 5 -a 0 -x {2.0 0.0 -1 ------- null}
r -t 0.121856 -s 1 -d 0 -p ack -e 40 -c 0 -i 4 -a 0 -x {2.0 0.0 1 ------- null}
+ -t 0.121856 -s 0 -d 1 -p tcp -e 1040 -c 0 -i 6 -a 0 -x {0.0 2.0 3 ------- null}
- -t 0.121856 -s 0 -d 1 -p tcp -e 1040 -c 0 -i 6 -a 0 -x {0.0 2.0 3 ------- null}
h -t 0.121856 -s 0 -d 1 -p tcp -e 1040 -c 0 -i 6 -a 0 -x {0.0 2.0 -1 ------- null}
+ -t 0.121856 -s 0 -d 1 -p tcp -e 1040 -c 0 -i 7 -a 0 -x {0.0 2.0 4 ------- null}
r -t 0.122688 -s 1 -d 0 -p ack -e 40 -c 0 -i 5 -a 0 -x {2.0 0.0 2 ------- null}
+ -t 0.122688 -s 0 -d 1 -p tcp -e 1040 -c 0 -i 8 -a 0 -x {0.0 2.0 5 ------- null}
+ -t 0.122688 -s 0 -d 1 -p tcp -e 1040 -c 0 -i 9 -a 0 -x {0.0 2.0 6 ------- null}
d -t 0.122688 -s 0 -d 1 -p tcp -e 1040 -c 0 -i 9 -a 0 -x {0.0 2.0 6 ------- null}
- -t 0.122688 -s 0 -d 1 -p tcp -e 1040 -c 0 -i 7 -a 0 -x {0.0 2.0 4 ------- null}
h -t 0.122688 -s 0 -d 1 -p tcp -e 1040 -c 0 -i 7 -a 0 -x {0.0 2.0 -1 ------- null}
- -t 0.12352 -s 0 -d 1 -p tcp -e 1040 -c 0 -i 8 -a 0 -x {0.0 2.0 5 ------- null}
h -t 0.12352 -s 0 -d 1 -p tcp -e 1040 -c 0 -i 8 -a 0 -x {0.0 2.0 -1 ------- null}
r -t 0.123688 -s 0 -d 1 -p tcp -e 1040 -c 0 -i 6 -a 0 -x {0.0 2.0 3 ------- null}
+ -t 0.123688 -s 1 -d 2 -p tcp -e 1040 -c 0 -i 6 -a 0 -x {0.0 2.0 3 ------- null}
- -t 0.123688 -s 1 -d 2 -p tcp -e 1040 -c 0 -i 6 -a 0 -x {0.0 2.0 3 ------- null}
h -t 0.123688 -s 1 -d 2 -p tcp -e 1040 -c 0 -i 6 -a 0 -x {0.0 2.0 -1 ------- null}
r -t 0.12452 -s 0 -d 1 -p tcp -e 1040 -c 0 -i 7 -a 0 -x {0.0 2.0 4 ------- null}
+ -t 0.12452 -s 1 -d 2 -p tcp -e 1040 -c 0 -i 7 -a 0 -x {0.0 2.0 4 ------- null}
- -t 0.12452 -s 1 -d 2 -p tcp -e 1040 -c 0 -i 7 -a 0 -x {0.0 2.0 4 ------- null}
h -t 0.12452 -s 1 -d 2 -p tcp -e 1040 -c 0 -i 7 -a 0 -x {0.0 2.0 -1 ------- null}
r -t 0.125352 -s 0 -d 1 -p tcp -e 1040 -c 0 -i 8 -a 0 -x {0.0 2.0 5 ------- null}
+ -t 0.125352 -s 1 -d 2 -p tcp -e 1040 -c 0 -i 8 -a 0 -x {0.0 2.0 5 ------- null}
- -t 0.125352 -s 1 -d 2 -p tcp -e 1040 -c 0 -i 8 -a 0 -x {0.0 2.0 5 ------- null}
h -t 0.125352 -s 1 -d 2 -p tcp -e 1040 -c 0 -i 8 -a 0 -x {0.0 2.0 -1 ------- null}
r -t 0.12852 -s 1 -d 2 -p tcp -e 1040 -c 0 -i 6 -a 0 -x {0.0 2.0 3 ------- null}
+ -t 0.12852 -s 2 -d 1 -p ack -e 40 -c 0 -i 10 -a 0 -x {2.0 0.0 3 ------- null}
- -t 0.12852 -s 2 -d 1 -p ack -e 40 -c 0 -i 10 -a 0 -x {2.0 0.0 3 ------- null}
h -t 0.12852 -s 2 -d 1 -p ack -e 40 -c 0 -i 10 -a 0 -x {2.0 0.0 -1 ------- null}
r -t 0.129352 -s 1 -d 2 -p tcp -e 1040 -c 0 -i 7 -a 0 -x {0.0 2.0 4 ------- null}
+ -t 0.129352 -s 2 -d 1 -p ack -e 40 -c 0 -i 11 -a 0 -x {2.0 0.0 4 ------- null}
- -t 0.129352 -s 2 -d 1 -p ack -e 40 -c 0 -i 11 -a 0 -x {2.0 0.0 4 ------- null}
h -t 0.129352 -s 2 -d 1 -p ack -e 40 -c 0 -i 11 -a 0 -x {2.0 0.0 -1 ------- null}
r -t 0.130184 -s 1 -d 2 -p tcp -e 1040 -c 0 -i 8 -a 0 -x {0.0 2.0 5 ------- null}
+ -t 0.130184 -s 2 -d 1 -p ack -e 40 -c 0 -i 12 -a 0 -x {2.0 0.0 5 ------- null}
- -t 0.130184 -s 2 -d 1 -p ack -e 40 -c 0 -i 12 -a 0 -x {2.0 0.0 5 ------- null}
h -t 0.130184 -s 2 -d 1 -p ack -e 40 -c 0 -i 12 -a 0 -x {2.0 0.0 -1 ------- null}
r -t 0.132552 -s 2 -d 1 -p ack -e 40 -c 0 -i 10 -a 0 -x {2.0 0.0 3 ------- null}
+ -t 0.132552 -s 1 -d 0 -p ack -e 40 -c 0 -i 10 -a 0 -x {2.0 0.0 3 ------- null}
- -t 0.132552 -s 1 -d 0 -p ack -e 40 -c 0 -i 10 -a 0 -x {2.0 0.0 3 ------- null}
h -t 0.132552 -s 1 -d 0 -p ack -e 40 -c 0 -i 10 -a 0 -x {2.0 0.0 -1 ------- null}
r -t 0.133384 -s 2 -d 1 -p ack -e 40 -c 0 -i 11 -a 0 -x {2.0 0.0 4 ------- null}
+ -t 0.133384 -s 1 -d 0 -p ack -e 40 -c 0 -i 11 -a 0 -x {2.0 0.0 4 ------- null}
- -t 0.133384 -s 1 -d 0 -p ack -e 40 -c 0 -i 11 -a 0 -x {2.0 0.0 4 ------- null}
h -t 0.133384 -s 1 -d 0 -p ack -e 40 -c 0 -i 11 -a 0 -x {2.0 0.0 -1 ------- null}
r -t 0.133584 -s 1 -d 0 -p ack -e 40 -c 0 -i 10 -a 0 -x {2.0 0.0 3 ------- null}
+ -t 0.133584 -s 0 -d 1 -p tcp -e 1040 -c 0 -i 13 -a 0 -x {0.0 2.0 7 ------- null}
- -t 0.133584 -s 0 -d 1 -p tcp -e 1040 -c 0 -i 13 -a 0 -x {0.0 2.0 7 ------- null}
h -t 0.133584 -s 0 -d 1 -p tcp -e 1040 -c 0 -i 13 -a 0 -x {0.0 2.0 -1 ------- null}
+ -t 0.133584 -s 0 -d 1 -p tcp -e 1040 -c 0 -i 14 -a 0 -x {0.0 2.0 8 ------- null}
r -t 0.134216 -s 2 -d 1 -p ack -e 40 -c 0 -i 12 -a 0 -x {2.0 0.0 5 ------- null}
+ -t 0.134216 -s 1 -d 0 -p ack -e 40 -c 0 -i 12 -a 0 -x {2.0 0.0 5 ------- null}
- -t 0.134216 -s 1 -d 0 -p ack -e 40 -c 0 -i 12 -a 0 -x {2.0 0.0 5 ------- null}
h -t 0.134216 -s 1 -d 0 -p ack -e 40 -c 0 -i 12 -a 0 -x {2.0 0.0 -1 ------- null}
r -t 0.134416 -s 1 -d 0 -p ack -e 40 -c 0 -i 11 -a 0 -x {2.0 0.0 4 ------- null}
+ -t 0.134416 -s 0 -d 1 -p tcp -e 1040 -c 0 -i 15 -a 0 -x {0.0 2.0 9 ------- null}
+ -t 0.134416 -s 0 -d 1 -p tcp -e 1040 -c 0 -i 16 -a 0 -x {0.0 2.0 10 ------- null}
d -t 0.134416 -s 0 -d 1 -p tcp -e 1040 -c 0 -i 16 -a 0 -x {0.0 2.0 10 ------- null}
- -t 0.134416 -s 0 -d 1 -p tcp -e 1040 -c 0 -i 14 -a 0 -x {0.0 2.0 8 ------- null}
h -t 0.134416 -s 0 -d 1 -p tcp -e 1040 -c 0 -i 14 -a 0 -x {0.0 2.0 -1 ------- null}
- -t 0.135248 -s 0 -d 1 -p tcp -e 1040 -c 0 -i 15 -a 0 -x {0.0 2.0 9 ------- null}
h -t 0.135248 -s 0 -d 1 -p tcp -e 1040 -c 0 -i 15 -a 0 -x {0.0 2.0 -1 ------- null}
r -t 0.135248 -s 1 -d 0 -p ack -e 40 -c 0 -i 12 -a 0 -x {2.0 0.0 5 ------- null}
+ -t 0.135248 -s 0 -d 1 -p tcp -e 1040 -c 0 -i 17 -a 0 -x {0.0 2.0 11 ------- null}
+ -t 0.135248 -s 0 -d 1 -p tcp -e 1040 -c 0 -i 18 -a 0 -x {0.0 2.0 12 ------- null}
r -t 0.135416 -s 0 -d 1 -p tcp -e 1040 -c 0 -i 13 -a 0 -x {0.0 2.0 7 ------- null}
+ -t 0.135416 -s 1 -d 2 -p tcp -e 1040 -c 0 -i 13 -a 0 -x {0.0 2.0 7 ------- null}
- -t 0.135416 -s 1 -d 2 -p tcp -e 1040 -c 0 -i 13 -a 0 -x {0.0 2.0 7 ------- null}
h -t 0.135416 -s 1 -d 2 -p tcp -e 1040 -c 0 -i 13 -a 0 -x {0.0 2.0 -1 ------- null}
- -t 0.13608 -s 0 -d 1 -p tcp -e 1040 -c 0 -i 17 -a 0 -x {0.0 2.0 11 ------- null}
h -t 0.13608 -s 0 -d 1 -p tcp -e 1040 -c 0 -i 17 -a 0 -x {0.0 2.0 -1 ------- null}
r -t 0.136248 -s 0 -d 1 -p tcp -e 1040 -c 0 -i 14 -a 0 -x {0.0 2.0 8 ------- null}
+ -t 0.136248 -s 1 -d 2 -p tcp -e 1040 -c 0 -i 14 -a 0 -x {0.0 2.0 8 ------- null}
- -t 0.136248 -s 1 -d 2 -p tcp -e 1040 -c 0 -i 14 -a 0 -x {0.0 2.0 8 ------- null}
h -t 0.136248 -s 1 -d 2 -p tcp -e 1040 -c 0 -i 14 -a 0 -x {0.0 2.0 -1 ------- null}
- -t 0.136912 -s 0 -d 1 -p tcp -e 1040 -c 0 -i 18 -a 0 -x {0.0 2.0 12 ------- null}
h -t 0.136912 -s 0 -d 1 -p tcp -e 1040 -c 0 -i 18 -a 0 -x {0.0 2.0 -1 ------- null}
r -t 0.13708 -s 0 -d 1 -p tcp -e 1040 -c 0 -i 15 -a 0 -x {0.0 2.0 9 ------- null}
+ -t 0.13708 -s 1 -d 2 -p tcp -e 1040 -c 0 -i 15 -a 0 -x {0.0 2.0 9 ------- null}
- -t 0.13708 -s 1 -d 2 -p tcp -e 1040 -c 0 -i 15 -a 0 -x {0.0 2.0 9 ------- null}
h -t 0.13708 -s 1 -d 2 -p tcp -e 1040 -c 0 -i 15 -a 0 -x {0.0 2.0 -1 ------- null}
r -t 0.137912 -s 0 -d 1 -p tcp -e 1040 -c 0 -i 17 -a 0 -x {0.0 2.0 11 ------- null}
+ -t 0.137912 -s 1 -d 2 -p tcp -e 1040 -c 0 -i 17 -a 0 -x {0.0 2.0 11 ------- null}
- -t 0.137912 -s 1 -d 2 -p tcp -e 1040 -c 0 -i 17 -a 0 -x {0.0 2.0 11 ------- null}
h -t 0.137912 -s 1 -d 2 -p tcp -e 1040 -c 0 -i 17 -a 0 -x {0.0 2.0 -1 ------- null}
r -t 0.138744 -s 0 -d 1 -p tcp -e 1040 -c 0 -i 18 -a 0 -x {0.0 2.0 12 ------- null}
+ -t 0.138744 -s 1 -d 2 -p tcp -e 1040 -c 0 -i 18 -a 0 -x {0.0 2.0 12 ------- null}
- -t 0.138744 -s 1 -d 2 -p tcp -e 1040 -c 0 -i 18 -a 0 -x {0.0 2.0 12 ------- null}
h -t 0.138744 -s 1 -d 2 -p tcp -e 1040 -c 0 -i 18 -a 0 -x {0.0 2.0 -1 ------- null}
r -t 0.140248 -s 1 -d 2 -p tcp -e 1040 -c 0 -i 13 -a 0 -x {0.0 2.0 7 ------- null}
+ -t 0.140248 -s 2 -d 1 -p ack -e 40 -c 0 -i 19 -a 0 -x {2.0 0.0 5 ------- null}
- -t 0.140248 -s 2 -d 1 -p ack -e 40 -c 0 -i 19 -a 0 -x {2.0 0.0 5 ------- null}
h -t 0.140248 -s 2 -d 1 -p ack -e 40 -c 0 -i 19 -a 0 -x {2.0 0.0 -1 ------- null}
r -t 0.14108 -s 1 -d 2 -p tcp -e 1040 -c 0 -i 14 -a 0 -x {0.0 2.0 8 ------- null}
+ -t 0.14108 -s 2 -d 1 -p ack -e 40 -c 0 -i 20 -a 0 -x {2.0 0.0 5 ------- null}
- -t 0.14108 -s 2 -d 1 -p ack -e 40 -c 0 -i 20 -a 0 -x {2.0 0.0 5 ------- null}
h -t 0.14108 -s 2 -d 1 -p ack -e 40 -c 0 -i 20 -a 0 -x {2.0 0.0 -1 ------- null}
r -t 0.141912 -s 1 -d 2 -p tcp -e 1040 -c 0 -i 15 -a 0 -x {0.0 2.0 9 ------- null}
+ -t 0.141912 -s 2 -d 1 -p ack -e 40 -c 0 -i 21 -a 0 -x {2.0 0.0 5 ------- null}
- -t 0.141912 -s 2 -d 1 -p ack -e 40 -c 0 -i 21 -a 0 -x {2.0 0.0 5 ------- null}
h -t 0.141912 -s 2 -d 1 -p ack -e 40 -c 0 -i 21 -a 0 -x {2.0 0.0 -1 ------- null}
r -t 0.142744 -s 1 -d 2 -p tcp -e 1040 -c 0 -i 17 -a 0 -x {0.0 2.0 11 ------- null}
+ -t 0.142744 -s 2 -d 1 -p ack -e 40 -c 0 -i 22 -a 0 -x {2.0 0.0 5 ------- null}
- -t 0.142744 -s 2 -d 1 -p ack -e 40 -c 0 -i 22 -a 0 -x {2.0 0.0 5 ------- null}
h -t 0.142744 -s 2 -d 1 -p ack -e 40 -c 0 -i 22 -a 0 -x {2.0 0.0 -1 ------- null}
r -t 0.143576 -s 1 -d 2 -p tcp -e 1040 -c 0 -i 18 -a 0 -x {0.0 2.0 12 ------- null}
+ -t 0.143576 -s 2 -d 1 -p ack -e 40 -c 0 -i 23 -a 0 -x {2.0 0.0 5 ------- null}
- -t 0.143576 -s 2 -d 1 -p ack -e 40 -c 0 -i 23 -a 0 -x {2.0 0.0 5 ------- null}
h -t 0.143576 -s 2 -d 1 -p ack -e 40 -c 0 -i 23 -a 0 -x {2.0 0.0 -1 ------- null}
r -t 0.14428 -s 2 -d 1 -p ack -e 40 -c 0 -i 19 -a 0 -x {2.0 0.0 5 ------- null}
+ -t 0.14428 -s 1 -d 0 -p ack -e 40 -c 0 -i 19 -a 0 -x {2.0 0.0 5 ------- null}
- -t 0.14428 -s 1 -d 0 -p ack -e 40 -c 0 -i 19 -a 0 -x {2.0 0.0 5 ------- null}
h -t 0.14428 -s 1 -d 0 -p ack -e 40 -c 0 -i 19 -a 0 -x {2.0 0.0 -1 ------- null}
r -t 0.145112 -s 2 -d 1 -p ack -e 40 -c 0 -i 20 -a 0 -x {2.0 0.0 5 ------- null}
+ -t 0.145112 -s 1 -d 0 -p ack -e 40 -c 0 -i 20 -a 0 -x {2.0 0.0 5 ------- null}
- -t 0.145112 -s 1 -d 0 -p ack -e 40 -c 0 -i 20 -a 0 -x {2.0 0.0 5 ------- null}
h -t 0.145112 -s 1 -d 0 -p ack -e 40 -c 0 -i 20 -a 0 -x {2.0 0.0 -1 ------- null}
r -t 0.145312 -s 1 -d 0 -p ack -e 40 -c 0 -i 19 -a 0 -x {2.0 0.0 5 ------- null}
+ -t 0.145312 -s 0 -d 1 -p tcp -e 1040 -c 0 -i 24 -a 0 -x {0.0 2.0 13 ------- null}
- -t 0.145312 -s 0 -d 1 -p tcp -e 1040 -c 0 -i 24 -a 0 -x {0.0 2.0 13 ------- null}
h -t 0.145312 -s 0 -d 1 -p tcp -e 1040 -c 0 -i 24 -a 0 -x {0.0 2.0 -1 ------- null}
r -t 0.145944 -s 2 -d 1 -p ack -e 40 -c 0 -i 21 -a 0 -x {2.0 0.0 5 ------- null}
+ -t 0.145944 -s 1 -d 0 -p ack -e 40 -c 0 -i 21 -a 0 -x {2.0 0.0 5 ------- null}
- -t 0.145944 -s 1 -d 0 -p ack -e 40 -c 0 -i 21 -a 0 -x {2.0 0.0 5 ------- null}
h -t 0.145944 -s 1 -d 0 -p ack -e 40 -c 0 -i 21 -a 0 -x {2.0 0.0 -1 ------- null}
r -t 0.146144 -s 1 -d 0 -p ack -e 40 -c 0 -i 20 -a 0 -x {2.0 0.0 5 ------- null}
+ -t 0.146144 -s 0 -d 1 -p tcp -e 1040 -c 0 -i 25 -a 0 -x {0.0 2.0 14 ------- null}
- -t 0.146144 -s 0 -d 1 -p tcp -e 1040 -c 0 -i 25 -a 0 -x {0.0 2.0 14 ------- null}
h -t 0.146144 -s 0 -d 1 -p tcp -e 1040 -c 0 -i 25 -a 0 -x {0.0 2.0 -1 ------- null}
r -t 0.146776 -s 2 -d 1 -p ack -e 40 -c 0 -i 22 -a 0 -x {2.0 0.0 5 ------- null}
+ -t 0.146776 -s 1 -d 0 -p ack -e 40 -c 0 -i 22 -a 0 -x {2.0 0.0 5 ------- null}
- -t 0.146776 -s 1 -d 0 -p ack -e 40 -c 0 -i 22 -a 0 -x {2.0 0.0 5 ------- null}
h -t 0.146776 -s 1 -d 0 -p ack -e 40 -c 0 -i 22 -a 0 -x {2.0 0.0 -1 ------- null}
r -t 0.146976 -s 1 -d 0 -p ack -e 40 -c 0 -i 21 -a 0 -x {2.0 0.0 5 ------- null}
+ -t 0.146976 -s 0 -d 1 -p tcp -e 1040 -c 0 -i 26 -a 0 -x {0.0 2.0 6 ---A--- null}
- -t 0.146976 -s 0 -d 1 -p tcp -e 1040 -c 0 -i 26 -a 0 -x {0.0 2.0 6 ---A--- null}
h -t 0.146976 -s 0 -d 1 -p tcp -e 1040 -c 0 -i 26 -a 0 -x {0.0 2.0 -1 ---A--- null}
r -t 0.147144 -s 0 -d 1 -p tcp -e 1040 -c 0 -i 24 -a 0 -x {0.0 2.0 13 ------- null}
+ -t 0.147144 -s 1 -d 2 -p tcp -e 1040 -c 0 -i 24 -a 0 -x {0.0 2.0 13 ------- null}
- -t 0.147144 -s 1 -d 2 -p tcp -e 1040 -c 0 -i 24 -a 0 -x {0.0 2.0 13 ------- null}
h -t 0.147144 -s 1 -d 2 -p tcp -e 1040 -c 0 -i 24 -a 0 -x {0.0 2.0 -1 ------- null}
r -t 0.147608 -s 2 -d 1 -p ack -e 40 -c 0 -i 23 -a 0 -x {2.0 0.0 5 ------- null}
+ -t 0.147608 -s 1 -d 0 -p ack -e 40 -c 0 -i 23 -a 0 -x {2.0 0.0 5 ------- null}
- -t 0.147608 -s 1 -d 0 -p ack -e 40 -c 0 -i 23 -a 0 -x {2.0 0.0 5 ------- null}
h -t 0.147608 -s 1 -d 0 -p ack -e 40 -c 0 -i 23 -a 0 -x {2.0 0.0 -1 ------- null}
r -t 0.147808 -s 1 -d 0 -p ack -e 40 -c 0 -i 22 -a 0 -x {2.0 0.0 5 ------- null}
r -t 0.147976 -s 0 -d 1 -p tcp -e 1040 -c 0 -i 25 -a 0 -x {0.0 2.0 14 ------- null}
+ -t 0.147976 -s 1 -d 2 -p tcp -e 1040 -c 0 -i 25 -a 0 -x {0.0 2.0 14 ------- null}
- -t 0.147976 -s 1 -d 2 -p tcp -e 1040 -c 0 -i 25 -a 0 -x {0.0 2.0 14 ------- null}
h -t 0.147976 -s 1 -d 2 -p tcp -e 1040 -c 0 -i 25 -a 0 -x {0.0 2.0 -1 ------- null}
r -t 0.14864 -s 1 -d 0 -p ack -e 40 -c 0 -i 23 -a 0 -x {2.0 0.0 5 ------- null}
r -t 0.148808 -s 0 -d 1 -p tcp -e 1040 -c 0 -i 26 -a 0 -x {0.0 2.0 6 ---A--- null}
+ -t 0.148808 -s 1 -d 2 -p tcp -e 1040 -c 0 -i 26 -a 0 -x {0.0 2.0 6 ---A--- null}
- -t 0.148808 -s 1 -d 2 -p tcp -e 1040 -c 0 -i 26 -a 0 -x {0.0 2.0 6 ---A--- null}
h -t 0.148808 -s 1 -d 2 -p tcp -e 1040 -c 0 -i 26 -a 0 -x {0.0 2.0 -1 ---A--- null}
r -t 0.151976 -s 1 -d 2 -p tcp -e 1040 -c 0 -i 24 -a 0 -x {0.0 2.0 13 ------- null}
+ -t 0.151976 -s 2 -d 1 -p ack -e 40 -c 0 -i 27 -a 0 -x {2.0 0.0 5 ------- null}
- -t 0.151976 -s 2 -d 1 -p ack -e 40 -c 0 -i 27 -a 0 -x {2.0 0.0 5 ------- null}
h -t 0.151976 -s 2 -d 1 -p ack -e 40 -c 0 -i 27 -a 0 -x {2.0 0.0 -1 ------- null}
r -t 0.152808 -s 1 -d 2 -p tcp -e 1040 -c 0 -i 25 -a 0 -x {0.0 2.0 14 ------- null}
+ -t 0.152808 -s 2 -d 1 -p ack -e 40 -c 0 -i 28 -a 0 -x {2.0 0.0 5 ------- null}
- -t 0.152808 -s 2 -d 1 -p ack -e 40 -c 0 -i 28 -a 0 -x {2.0 0.0 5 ------- null}
h -t 0.152808 -s 2 -d 1 -p ack -e 40 -c 0 -i 28 -a 0 -x {2.0 0.0 -1 ------- null}
r -t 0.15364 -s 1 -d 2 -p tcp -e 1040 -c 0 -i 26 -a 0 -x {0.0 2.0 6 ---A--- null}
+ -t 0.15364 -s 2 -d 1 -p ack -e 40 -c 0 -i 29 -a 0 -x {2.0 0.0 9 ------- null}
- -t 0.15364 -s 2 -d 1 -p ack -e 40 -c 0 -i 29 -a 0 -x {2.0 0.0 9 ------- null}
h -t 0.15364 -s 2 -d 1 -p ack -e 40 -c 0 -i 29 -a 0 -x {2.0 0.0 -1 ------- null}
r -t 0.156008 -s 2 -d 1 -p ack -e 40 -c 0 -i 27 -a 0 -x {2.0 0.0 5 ------- null}
+ -t 0.156008 -s 1 -d 0 -p ack -e 40 -c 0 -i 27 -a 0 -x {2.0 0.0 5 ------- null}
- -t 0.156008 -s 1 -d 0 -p ack -e 40 -c 0 -i 27 -a 0 -x {2.0 0.0 5 ------- null}
h -t 0.156008 -s 1 -d 0 -p ack -e 40 -c 0 -i 27 -a 0 -x {2.0 0.0 -1 ------- null}
r -t 0.15684 -s 2 -d 1 -p ack -e 40 -c 0 -i 28 -a 0 -x {2.0 0.0 5 ------- null}
+ -t 0.15684 -s 1 -d 0 -p ack -e 40 -c 0 -i 28 -a 0 -x {2.0 0.0 5 ------- null}
- -t 0.15684 -s 1 -d 0 -p ack -e 40 -c 0 -i 28 -a 0 -x {2.0 0.0 5 ------- null}
h -t 0.15684 -s 1 -d 0 -p ack -e 40 -c 0 -i 28 -a 0 -x {2.0 0.0 -1 ------- null}
r -t 0.15704 -s 1 -d 0 -p ack -e 40 -c 0 -i 27 -a 0 -x {2.0 0.0 5 ------- null}
r -t 0.157672 -s 2 -d 1 -p ack -e 40 -c 0 -i 29 -a 0 -x {2.0 0.0 9 ------- null}
+ -t 0.157672 -s 1 -d 0 -p ack -e 40 -c 0 -i 29 -a 0 -x {2.0 0.0 9 ------- null}
- -t 0.157672 -s 1 -d 0 -p ack -e 40 -c 0 -i 29 -a 0 -x {2.0 0.0 9 ------- null}
h -t 0.157672 -s 1 -d 0 -p ack -e 40 -c 0 -i 29 -a 0 -x {2.0 0.0 -1 ------- null}
r -t 0.157872 -s 1 -d 0 -p ack -e 40 -c 0 -i 28 -a 0 -x {2.0 0.0 5 ------- null}
r -t 0.158704 -s 1 -d 0 -p ack -e 40 -c 0 -i 29 -a 0 -x {2.0 0.0 9 ------- null}
+ -t 0.158704 -s 0 -d 1 -p tcp -e 1040 -c 0 -i 30 -a 0 -x {0.0 2.0 10 ------- null}
- -t 0.158704 -s 0 -d 1 -p tcp -e 1040 -c 0 -i 30 -a 0 -x {0.0 2.0 10 ------- null}
h -t 0.158704 -s 0 -d 1 -p tcp -e 1040 -c 0 -i 30 -a 0 -x {0.0 2.0 -1 ------- null}
+ -t 0.158704 -s 0 -d 1 -p tcp -e 1040 -c 0 -i 31 -a 0 -x {0.0 2.0 11 ------- null}
- -t 0.159536 -s 0 -d 1 -p tcp -e 1040 -c 0 -i 31 -a 0 -x {0.0 2.0 11 ------- null}
h -t 0.159536 -s 0 -d 1 -p tcp -e 1040 -c 0 -i 31 -a 0 -x {0.0 2.0 -1 ------- null}
r -t 0.160536 -s 0 -d 1 -p tcp -e 1040 -c 0 -i 30 -a 0 -x {0.0 2.0 10 ------- null}
+ -t 0.160536 -s 1 -d 2 -p tcp -e 1040 -c 0 -i 30 -a 0 -x {0.0 2.0 10 ------- null}
- -t 0.160536 -s 1 -d 2 -p tcp -e 1040 -c 0 -i 30 -a 0 -x {0.0 2.0 10 ------- null}
h -t 0.160536 -s 1 -d 2 -p tcp -e 1040 -c 0 -i 30 -a 0 -x {0.0 2.0 -1 ------- null}
r -t 0.161368 -s 0 -d 1 -p tcp -e 1040 -c 0 -i 31 -a 0 -x {0.0 2.0 11 ------- null}
+ -t 0.161368 -s 1 -d 2 -p tcp -e 1040 -c 0 -i 31 -a 0 -x {0.0 2.0 11 ------- null}
- -t 0.161368 -s 1 -d 2 -p tcp -e 1040 -c 0 -i 31 -a 0 -x {0.0 2.0 11 ------- null}
h -t 0.161368 -s 1 -d 2 -p tcp -e 1040 -c 0 -i 31 -a 0 -x {0.0 2.0 -1 ------- null}
r -t 0.165368 -s 1 -d 2 -p tcp -e 1040 -c 0 -i 30 -a 0 -x {0.0 2.0 10 ------- null}
+ -t 0.165368 -s 2 -d 1 -p ack -e 40 -c 0 -i 32 -a 0 -x {2.0 0.0 14 ------- null}
- -t 0.165368 -s 2 -d 1 -p ack -e 40 -c 0 -i 32 -a 0 -x {2.0 0.0 14 ------- null}
h -t 0.165368 -s 2 -d 1 -p ack -e 40 -c 0 -i 32 -a 0 -x {2.0 0.0 -1 ------- null}
r -t 0.1662 -s 1 -d 2 -p tcp -e 1040 -c 0 -i 31 -a 0 -x {0.0 2.0 11 ------- null}
+ -t 0.1662 -s 2 -d 1 -p ack -e 40 -c 0 -i 33 -a 0 -x {2.0 0.0 14 ------- null}
- -t 0.1662 -s 2 -d 1 -p ack -e 40 -c 0 -i 33 -a 0 -x {2.0 0.0 14 ------- null}
h -t 0.1662 -s 2 -d 1 -p ack -e 40 -c 0 -i 33 -a 0 -x {2.0 0.0 -1 ------- null}
r -t 0.1694 -s 2 -d 1 -p ack -e 40 -c 0 -i 32 -a 0 -x {2.0 0.0 14 ------- null}
+ -t 0.1694 -s 1 -d 0 -p ack -e 40 -c 0 -i 32 -a 0 -x {2.0 0.0 14 ------- null}
- -t 0.1694 -s 1 -d 0 -p ack -e 40 -c 0 -i 32 -a 0 -x {2.0 0.0 14 ------- null}
h -t 0.1694 -s 1 -d 0 -p ack -e 40 -c 0 -i 32 -a 0 -x {2.0 0.0 -1 ------- null}
r -t 0.170232 -s 2 -d 1 -p ack -e 40 -c 0 -i 33 -a 0 -x {2.0 0.0 14 ------- null}
+ -t 0.170232 -s 1 -d 0 -p ack -e 40 -c 0 -i 33 -a 0 -x {2.0 0.0 14 ------- null}
- -t 0.170232 -s 1 -d 0 -p ack -e 40 -c 0 -i 33 -a 0 -x {2.0 0.0 14 ------- null}
h -t 0.170232 -s 1 -d 0 -p ack -e 40 -c 0 -i 33 -a 0 -x {2.0 0.0 -1 ------- null}
r -t 0.170432 -s 1 -d 0 -p ack -e 40 -c 0 -i 32 -a 0 -x {2.0 0.0 14 ------- null}
+ -t 0.170432 -s 0 -d 1 -p tcp -e 1040 -c 0 -i 34 -a 0 -x {0.0 2.0 15 ------- null}
- -t 0.170432 -s 0 -d 1 -p tcp -e 1040 -c 0 -i 34 -a 0 -x {0.0 2.0 15 ------- null}
h -t 0.170432 -s 0 -d 1 -p tcp -e 1040 -c 0 -i 34 -a 0 -x {0.0 2.0 -1 ------- null}
+ -t 0.170432 -s 0 -d 1 -p tcp -e 1040 -c 0 -i 35 -a 0 -x {0.0 2.0 16 ------- null}
+ -t 0.170432 -s 0 -d 1 -p tcp -e 1040 -c 0 -i 36 -a 0 -x {0.0 2.0 17 ------- null}
r -t 0.171264 -s 1 -d 0 -p ack -e 40 -c 0 -i 33 -a 0 -x {2.0 0.0 14 ------- null}
+ -t 0.171264 -s 0 -d 1 -p tcp -e 1040 -c 0 -i 37 -a 0 -x {0.0 2.0 18 ------- null}
d -t 0.171264 -s 0 -d 1 -p tcp -e 1040 -c 0 -i 37 -a 0 -x {0.0 2.0 18 ------- null}
- -t 0.171264 -s 0 -d 1 -p tcp -e 1040 -c 0 -i 35 -a 0 -x {0.0 2.0 16 ------- null}
h -t 0.171264 -s 0 -d 1 -p tcp -e 1040 -c 0 -i 35 -a 0 -x {0.0 2.0 -1 ------- null}
- -t 0.172096 -s 0 -d 1 -p tcp -e 1040 -c 0 -i 36 -a 0 -x {0.0 2.0 17 ------- null}
h -t 0.172096 -s 0 -d 1 -p tcp -e 1040 -c 0 -i 36 -a 0 -x {0.0 2.0 -1 ------- null}
r -t 0.172264 -s 0 -d 1 -p tcp -e 1040 -c 0 -i 34 -a 0 -x {0.0 2.0 15 ------- null}
+ -t 0.172264 -s 1 -d 2 -p tcp -e 1040 -c 0 -i 34 -a 0 -x {0.0 2.0 15 ------- null}
- -t 0.172264 -s 1 -d 2 -p tcp -e 1040 -c 0 -i 34 -a 0 -x {0.0 2.0 15 ------- null}
h -t 0.172264 -s 1 -d 2 -p tcp -e 1040 -c 0 -i 34 -a 0 -x {0.0 2.0 -1 ------- null}
r -t 0.173096 -s 0 -d 1 -p tcp -e 1040 -c 0 -i 35 -a 0 -x {0.0 2.0 16 ------- null}
+ -t 0.173096 -s 1 -d 2 -p tcp -e 1040 -c 0 -i 35 -a 0 -x {0.0 2.0 16 ------- null}
- -t 0.173096 -s 1 -d 2 -p tcp -e 1040 -c 0 -i 35 -a 0 -x {0.0 2.0 16 ------- null}
h -t 0.173096 -s 1 -d 2 -p tcp -e 1040 -c 0 -i 35 -a 0 -x {0.0 2.0 -1 ------- null}
r -t 0.173928 -s 0 -d 1 -p tcp -e 1040 -c 0 -i 36 -a 0 -x {0.0 2.0 17 ------- null}
+ -t 0.173928 -s 1 -d 2 -p tcp -e 1040 -c 0 -i 36 -a 0 -x {0.0 2.0 17 ------- null}
- -t 0.173928 -s 1 -d 2 -p tcp -e 1040 -c 0 -i 36 -a 0 -x {0.0 2.0 17 ------- null}
h -t 0.173928 -s 1 -d 2 -p tcp -e 1040 -c 0 -i 36 -a 0 -x {0.0 2.0 -1 ------- null}
r -t 0.177096 -s 1 -d 2 -p tcp -e 1040 -c 0 -i 34 -a 0 -x {0.0 2.0 15 ------- null}
+ -t 0.177096 -s 2 -d 1 -p ack -e 40 -c 0 -i 38 -a 0 -x {2.0 0.0 15 ------- null}
- -t 0.177096 -s 2 -d 1 -p ack -e 40 -c 0 -i 38 -a 0 -x {2.0 0.0 15 ------- null}
h -t 0.177096 -s 2 -d 1 -p ack -e 40 -c 0 -i 38 -a 0 -x {2.0 0.0 -1 ------- null}
r -t 0.177928 -s 1 -d 2 -p tcp -e 1040 -c 0 -i 35 -a 0 -x {0.0 2.0 16 ------- null}
+ -t 0.177928 -s 2 -d 1 -p ack -e 40 -c 0 -i 39 -a 0 -x {2.0 0.0 16 ------- null}
- -t 0.177928 -s 2 -d 1 -p ack -e 40 -c 0 -i 39 -a 0 -x {2.0 0.0 16 ------- null}
h -t 0.177928 -s 2 -d 1 -p ack -e 40 -c 0 -i 39 -a 0 -x {2.0 0.0 -1 ------- null}
r -t 0.17876 -s 1 -d 2 -p tcp -e 1040 -c 0 -i 36 -a 0 -x {0.0 2.0 17 ------- null}
+ -t 0.17876 -s 2 -d 1 -p ack -e 40 -c 0 -i 40 -a 0 -x {2.0 0.0 17 ------- null}
- -t 0.17876 -s 2 -d 1 -p ack -e 40 -c 0 -i 40 -a 0 -x {2.0 0.0 17 ------- null}
h -t 0.17876 -s 2 -d 1 -p ack -e 40 -c 0 -i 40 -a 0 -x {2.0 0.0 -1 ------- null}
r -t 0.181128 -s 2 -d 1 -p ack -e 40 -c 0 -i 38 -a 0 -x {2.0 0.0 15 ------- null}
+ -t 0.181128 -s 1 -d 0 -p ack -e 40 -c 0 -i 38 -a 0 -x {2.0 0.0 15 ------- null}
- -t 0.181128 -s 1 -d 0 -p ack -e 40 -c 0 -i 38 -a 0 -x {2.0 0.0 15 ------- null}
h -t 0.181128 -s 1 -d 0 -p ack -e 40 -c 0 -i 38 -a 0 -x {2.0 0.0 -1 ------- null}
r -t 0.18196 -s 2 -d 1 -p ack -e 40 -c 0 -i 39 -a 0 -x {2.0 0.0 16 ------- null}
+ -t 0.18196 -s 1 -d 0 -p ack -e 40 -c 0 -i 39 -a 0 -x {2.0 0.0 16 ------- null}
- -t 0.18196 -s 1 -d 0 -p ack -e 40 -c 0 -i 39 -a 0 -x {2.0 0.0 16 ------- null}
h -t 0.18196 -s 1 -d 0 -p ack -e 40 -c 0 -i 39 -a 0 -x {2.0 0.0 -1 ------- null}
r -t 0.18216 -s 1 -d 0 -p ack -e 40 -c 0 -i 38 -a 0 -x {2.0 0.0 15 ------- null}
r -t 0.182792 -s 2 -d 1 -p ack -e 40 -c 0 -i 40 -a 0 -x {2.0 0.0 17 ------- null}
+ -t 0.182792 -s 1 -d 0 -p ack -e 40 -c 0 -i 40 -a 0 -x {2.0 0.0 17 ------- null}
- -t 0.182792 -s 1 -d 0 -p ack -e 40 -c 0 -i 40 -a 0 -x {2.0 0.0 17 ------- null}
h -t 0.182792 -s 1 -d 0 -p ack -e 40 -c 0 -i 40 -a 0 -x {2.0 0.0 -1 ------- null}
r -t 0.182992 -s 1 -d 0 -p ack -e 40 -c 0 -i 39 -a 0 -x {2.0 0.0 16 ------- null}
+ -t 0.182992 -s 0 -d 1 -p tcp -e 1040 -c 0 -i 41 -a 0 -x {0.0 2.0 19 ------- null}
- -t 0.182992 -s 0 -d 1 -p tcp -e 1040 -c 0 -i 41 -a 0 -x {0.0 2.0 19 ------- null}
h -t 0.182992 -s 0 -d 1 -p tcp -e 1040 -c 0 -i 41 -a 0 -x {0.0 2.0 -1 ------- null}
r -t 0.183824 -s 1 -d 0 -p ack -e 40 -c 0 -i 40 -a 0 -x {2.0 0.0 17 ------- null}
+ -t 0.183824 -s 0 -d 1 -p tcp -e 1040 -c 0 -i 42 -a 0 -x {0.0 2.0 20 ------- null}
- -t 0.183824 -s 0 -d 1 -p tcp -e 1040 -c 0 -i 42 -a 0 -x {0.0 2.0 20 ------- null}
h -t 0.183824 -s 0 -d 1 -p tcp -e 1040 -c 0 -i 42 -a 0 -x {0.0 2.0 -1 ------- null}
r -t 0.184824 -s 0 -d 1 -p tcp -e 1040 -c 0 -i 41 -a 0 -x {0.0 2.0 19 ------- null}
+ -t 0.184824 -s 1 -d 2 -p tcp -e 1040 -c 0 -i 41 -a 0 -x {0.0 2.0 19 ------- null}
- -t 0.184824 -s 1 -d 2 -p tcp -e 1040 -c 0 -i 41 -a 0 -x {0.0 2.0 19 ------- null}
h -t 0.184824 -s 1 -d 2 -p tcp -e 1040 -c 0 -i 41 -a 0 -x {0.0 2.0 -1 ------- null}
r -t 0.185656 -s 0 -d 1 -p tcp -e 1040 -c 0 -i 42 -a 0 -x {0.0 2.0 20 ------- null}
+ -t 0.185656 -s 1 -d 2 -p tcp -e 1040 -c 0 -i 42 -a 0 -x {0.0 2.0 20 ------- null}
- -t 0.185656 -s 1 -d 2 -p tcp -e 1040 -c 0 -i 42 -a 0 -x {0.0 2.0 20 ------- null}
h -t 0.185656 -s 1 -d 2 -p tcp -e 1040 -c 0 -i 42 -a 0 -x {0.0 2.0 -1 ------- null}
r -t 0.189656 -s 1 -d 2 -p tcp -e 1040 -c 0 -i 41 -a 0 -x {0.0 2.0 19 ------- null}
+ -t 0.189656 -s 2 -d 1 -p ack -e 40 -c 0 -i 43 -a 0 -x {2.0 0.0 17 ------- null}
- -t 0.189656 -s 2 -d 1 -p ack -e 40 -c 0 -i 43 -a 0 -x {2.0 0.0 17 ------- null}
h -t 0.189656 -s 2 -d 1 -p ack -e 40 -c 0 -i 43 -a 0 -x {2.0 0.0 -1 ------- null}
r -t 0.190488 -s 1 -d 2 -p tcp -e 1040 -c 0 -i 42 -a 0 -x {0.0 2.0 20 ------- null}
+ -t 0.190488 -s 2 -d 1 -p ack -e 40 -c 0 -i 44 -a 0 -x {2.0 0.0 17 ------- null}
- -t 0.190488 -s 2 -d 1 -p ack -e 40 -c 0 -i 44 -a 0 -x {2.0 0.0 17 ------- null}
h -t 0.190488 -s 2 -d 1 -p ack -e 40 -c 0 -i 44 -a 0 -x {2.0 0.0 -1 ------- null}
r -t 0.193688 -s 2 -d 1 -p ack -e 40 -c 0 -i 43 -a 0 -x {2.0 0.0 17 ------- null}
+ -t 0.193688 -s 1 -d 0 -p ack -e 40 -c 0 -i 43 -a 0 -x {2.0 0.0 17 ------- null}
- -t 0.193688 -s 1 -d 0 -p ack -e 40 -c 0 -i 43 -a 0 -x {2.0 0.0 17 ------- null}
h -t 0.193688 -s 1 -d 0 -p ack -e 40 -c 0 -i 43 -a 0 -x {2.0 0.0 -1 ------- null}
r -t 0.19452 -s 2 -d 1 -p ack -e 40 -c 0 -i 44 -a 0 -x {2.0 0.0 17 ------- null}
+ -t 0.19452 -s 1 -d 0 -p ack -e 40 -c 0 -i 44 -a 0 -x {2.0 0.0 17 ------- null}
- -t 0.19452 -s 1 -d 0 -p ack -e 40 -c 0 -i 44 -a 0 -x {2.0 0.0 17 ------- null}
h -t 0.19452 -s 1 -d 0 -p ack -e 40 -c 0 -i 44 -a 0 -x {2.0 0.0 -1 ------- null}
r -t 0.19472 -s 1 -d 0 -p ack -e 40 -c 0 -i 43 -a 0 -x {2.0 0.0 17 ------- null}
+ -t 0.19472 -s 0 -d 1 -p tcp -e 1040 -c 0 -i 45 -a 0 -x {0.0 2.0 21 ------- null}
- -t 0.19472 -s 0 -d 1 -p tcp -e 1040 -c 0 -i 45 -a 0 -x {0.0 2.0 21 ------- null}
h -t 0.19472 -s 0 -d 1 -p tcp -e 1040 -c 0 -i 45 -a 0 -x {0.0 2.0 -1 ------- null}
r -t 0.195552 -s 1 -d 0 -p ack -e 40 -c 0 -i 44 -a 0 -x {2.0 0.0 17 ------- null}
+ -t 0.195552 -s 0 -d 1 -p tcp -e 1040 -c 0 -i 46 -a 0 -x {0.0 2.0 22 ------- null}
- -t 0.195552 -s 0 -d 1 -p tcp -e 1040 -c 0 -i 46 -a 0 -x {0.0 2.0 22 ------- null}
h -t 0.195552 -s 0 -d 1 -p tcp -e 1040 -c 0 -i 46 -a 0 -x {0.0 2.0 -1 ------- null}
r -t 0.196552 -s 0 -d 1 -p tcp -e 1040 -c 0 -i 45 -a 0 -x {0.0 2.0 21 ------- null}
+ -t 0.196552 -s 1 -d 2 -p tcp -e 1040 -c 0 -i 45 -a 0 -x {0.0 2.0 21 ------- null}
- -t 0.196552 -s 1 -d 2 -p tcp -e 1040 -c 0 -i 45 -a 0 -x {0.0 2.0 21 ------- null}
h -t 0.196552 -s 1 -d 2 -p tcp -e 1040 -c 0 -i 45 -a 0 -x {0.0 2.0 -1 ------- null}
r -t 0.197384 -s 0 -d 1 -p tcp -e 1040 -c 0 -i 46 -a 0 -x {0.0 2.0 22 ------- null}
+ -t 0.197384 -s 1 -d 2 -p tcp -e 1040 -c 0 -i 46 -a 0 -x {0.0 2.0 22 ------- null}
- -t 0.197384 -s 1 -d 2 -p tcp -e 1040 -c 0 -i 46 -a 0 -x {0.0 2.0 22 ------- null}
h -t 0.197384 -s 1 -d 2 -p tcp -e 1040 -c 0 -i 46 -a 0 -x {0.0 2.0 -1 ------- null}
r -t 0.201384 -s 1 -d 2 -p tcp -e 1040 -c 0 -i 45 -a 0 -x {0.0 2.0 21 ------- null}
+ -t 0.201384 -s 2 -d 1 -p ack -e 40 -c 0 -i 47 -a 0 -x {2.0 0.0 17 ------- null}
- -t 0.201384 -s 2 -d 1 -p ack -e 40 -c 0 -i 47 -a 0 -x {2.0 0.0 17 ------- null}
h -t 0.201384 -s 2 -d 1 -p ack -e 40 -c 0 -i 47 -a 0 -x {2.0 0.0 -1 ------- null}