+ 0.1 1 0 cbr 500 ------- 1 1.0 5.0 0 0
- 0.1 1 0 cbr 500 ------- 1 1.0 5.0 0 0
+ 0.105 1 0 cbr 500 ------- 1 1.0 5.0 1 1
- 0.105 1 0 cbr 500 ------- 1 1.0 5.0 1 1
+ 0.11 1 0 cbr 500 ------- 1 1.0 5.0 2 2
- 0.11 1 0 cbr 500 ------- 1 1.0 5.0 2 2
r 0.114 1 0 cbr 500 ------- 1 1.0 5.0 0 0
+ 0.114 0 5 cbr 500 ------- 1 1.0 5.0 0 0
- 0.114 0 5 cbr 500 ------- 1 1.0 5.0 0 0
+ 0.115 1 0 cbr 500 ------- 1 1.0 5.0 3 3
- 0.115 1 0 cbr 500 ------- 1 1.0 5.0 3 3
r 0.119 1 0 cbr 500 ------- 1 1.0 5.0 1 1
+ 0.119 0 5 cbr 500 ------- 1 1.0 5.0 1 1
+ 0.12 1 0 cbr 500 ------- 1 1.0 5.0 4 4
- 0.12 1 0 cbr 500 ------- 1 1.0 5.0 4 4
- 0.122 0 5 cbr 500 ------- 1 1.0 5.0 1 1
r 0.124 1 0 cbr 500 ------- 1 1.0 5.0 2 2
+ 0.124 0 5 cbr 500 ------- 1 1.0 5.0 2 2
+ 0.125 1 0 cbr 500 ------- 1 1.0 5.0 5 5
- 0.125 1 0 cbr 500 ------- 1 1.0 5.0 5 5
r 0.129 1 0 cbr 500 ------- 1 1.0 5.0 3 3
+ 0.129 0 5 cbr 500 ------- 1 1.0 5.0 3 3
- 0.13 0 5 cbr 500 ------- 1 1.0 5.0 2 2
+ 0.13 1 0 cbr 500 ------- 1 1.0 5.0 6 6
- 0.13 1 0 cbr 500 ------- 1 1.0 5.0 6 6
r 0.132 0 5 cbr 500 ------- 1 1.0 5.0 0 0
r 0.134 1 0 cbr 500 ------- 1 1.0 5.----- 1 1.0 5.0 0 0
- 0.114 0 5 cbr 500 ------- 1 1.0 5.0 0 0
+ 0.115 1 0 cbr 500 ------- 1 1.0 5.0 3 3
- 0.115 1 0 cbr 500 ------- 1 1.0 5.0 3 3
r 0.119 1 0 cbr 500 ------- 1 1.0 5.0 1 1
+ 0.119 0 5 cbr 500 ------- 1 1.0 5.0 1 1
+ 0.12 1 0 cbr 500 ------- 1 1.0 5.0 4 4
- 0.12 1 0 cbr 500 ------- 1 1.0 5.0 4 4
- 0.122 0 5 cbr 500 ------- 1 1.0 5.0 1 1
r 0.124 1 0 cbr 500 ------- 1 1.0 5.0 2 2
+ 0.124 0 5 cbr 500 ------- 1 1.0 5.0 2 2
+ 0.125 1 0 cbr 500 ------- 1 1.0 5.0 5 5
- 0.125 1 0 cbr 500 ------- 1 1.0 5.0 5 5 4 4
+ 0.134 0 5 cbr 500 ------- 1 1.0 5.----- 1 1.0 5.0 0 0
- 0.114 0 5 cbr 500 ------- 1 1.0 5.0 0 0
+ 0.115 1 0 cbr 500 ------- 1 1.0 5.0 3 3
- 0.115 1 0 cbr 500 ------- 1 1.0 5.0 3 3
r 0.119 1 0 cbr 500 ------- 1 1.0 5.0 1 1
+ 0.119 0 5 cbr 500 ------- 1 1.0 5.0 1 1
+ 0.12 1 0 cbr 500 ------- 1 1.0 5.0 4 4
- 0.12 1 0 cbr 500 ------- 1 1.0 5.0 4 4
- 0.122 0 5 cbr 500 ------- 1 1.0 5.0 1 1
r 0.124 1 0 cbr 500 ------- 1 1.0 5.0 2 2
+ 0.124 0 5 cbr 500 ------- 1 1.0 5.0 2 2
+ 0.125 1 0 cbr 500 ------- 1 1.0 5.0 5 5
- 0.125 1 0 cbr 500 ------- 1 1.0 5.0 5 5 4 4
+ 0.135 1 0 cbr 500 ------- 1 1.0 5.----- 1 1.0 5.0 0 0
- 0.114 0 5 cbr 500 ------- 1 1.0 5.0 0 0
+ 0.115 1 0 cbr 500 ------- 1 1.0 5.0 3 3
- 0.115 1 0 cbr 500 ------- 1 1.0 5.0 3 3
r 0.119 1 0 cbr 500 ------- 1 1.0 5.0 1 1
+ 0.119 0 5 cbr 500 ------- 1 1.0 5.0 1 1
+ 0.12 1 0 cbr 500 ------- 1 1.0 5.0 4 4
- 0.12 1 0 cbr 500 ------- 1 1.0 5.0 4 4
- 0.122 0 5 cbr 500 ------- 1 1.0 5.0 1 1
r 0.124 1 0 cbr 500 ------- 1 1.0 5.0 2 2
+ 0.124 0 5 cbr 500 ------- 1 1.0 5.0 2 2
+ 0.125 1 0 cbr 500 ------- 1 1.0 5.0 5 5
- 0.125 1 0 cbr 500 ------- 1 1.0 5.0 5 5 7 7
- 0.135 1 0 cbr 500 ------- 1 1.0 5.----- 1 1.0 5.0 0 0
- 0.114 0 5 cbr 500 ------- 1 1.0 5.0 0 0
+ 0.115 1 0 cbr 500 ------- 1 1.0 5.0 3 3
- 0.115 1 0 cbr 500 ------- 1 1.0 5.0 3 3
r 0.119 1 0 cbr 500 ------- 1 1.0 5.0 1 1
+ 0.119 0 5 cbr 500 ------- 1 1.0 5.0 1 1
+ 0.12 1 0 cbr 500 ------- 1 1.0 5.0 4 4
- 0.12 1 0 cbr 500 ------- 1 1.0 5.0 4 4
- 0.122 0 5 cbr 500 ------- 1 1.0 5.0 1 1
r 0.124 1 0 cbr 500 ------- 1 1.0 5.0 2 2
+ 0.124 0 5 cbr 500 ------- 1 1.0 5.0 2 2
+ 0.125 1 0 cbr 500 ------- 1 1.0 5.0 5 5
- 0.125 1 0 cbr 500 ------- 1 1.0 5.0 5 5 7 7
- 0.138 0 5 cbr 500 ------- 1 1.0 5.----- 1 1.0 5.0 0 0
- 0.114 0 5 cbr 500 ------- 1 1.0 5.0 0 0
+ 0.115 1 0 cbr 500 ------- 1 1.0 5.0 3 3
- 0.115 1 0 cbr 500 ------- 1 1.0 5.0 3 3
r 0.119 1 0 cbr 500 ------- 1 1.0 5.0 1 1
+ 0.119 0 5 cbr 500 ------- 1 1.0 5.0 1 1
+ 0.12 1 0 cbr 500 ------- 1 1.0 5.0 4 4
- 0.12 1 0 cbr 500 ------- 1 1.0 5.0 4 4
- 0.122 0 5 cbr 500 ------- 1 1.0 5.0 1 1
r 0.124 1 0 cbr 500 ------- 1 1.0 5.0 2 2
+ 0.124 0 5 cbr 500 ------- 1 1.0 5.0 2 2
+ 0.125 1 0 cbr 500 ------- 1 1.0 5.0 5 5
- 0.125 1 0 cbr 500 ------- 1 1.0 5.0 5 5 3 3
r 0.139 1 0 cbr 500 ------- 1 1.0 5.----- 1 1.0 5.0 0 0
- 0.114 0 5 cbr 500 ------- 1 1.0 5.0 0 0
+ 0.115 1 0 cbr 500 ------- 1 1.0 5.0 3 3
- 0.115 1 0 cbr 500 ------- 1 1.0 5.0 3 3
r 0.119 1 0 cbr 500 ------- 1 1.0 5.0 1 1
+ 0.119 0 5 cbr 500 ------- 1 1.0 5.0 1 1
+ 0.12 1 0 cbr 500 ------- 1 1.0 5.0 4 4
- 0.12 1 0 cbr 500 ------- 1 1.0 5.0 4 4
- 0.122 0 5 cbr 500 ------- 1 1.0 5.0 1 1
r 0.124 1 0 cbr 500 ------- 1 1.0 5.0 2 2
+ 0.124 0 5 cbr 500 ------- 1 1.0 5.0 2 2
+ 0.125 1 0 cbr 500 ------- 1 1.0 5.0 5 5
- 0.125 1 0 cbr 500 ------- 1 1.0 5.0 5 5 5 5
+ 0.139 0 5 cbr 500 ------- 1 1.0 5.----- 1 1.0 5.0 0 0
- 0.114 0 5 cbr 500 ------- 1 1.0 5.0 0 0
+ 0.115 1 0 cbr 500 ------- 1 1.0 5.0 3 3
- 0.115 1 0 cbr 500 ------- 1 1.0 5.0 3 3
r 0.119 1 0 cbr 500 ------- 1 1.0 5.0 1 1
+ 0.119 0 5 cbr 500 ------- 1 1.0 5.0 1 1
+ 0.12 1 0 cbr 500 ------- 1 1.0 5.0 4 4
- 0.12 1 0 cbr 500 ------- 1 1.0 5.0 4 4
- 0.122 0 5 cbr 500 ------- 1 1.0 5.0 1 1
r 0.124 1 0 cbr 500 ------- 1 1.0 5.0 2 2
+ 0.124 0 5 cbr 500 ------- 1 1.0 5.0 2 2
+ 0.125 1 0 cbr 500 ------- 1 1.0 5.0 5 5
- 0.125 1 0 cbr 500 ------- 1 1.0 5.0 5 5 5 5
r 0.14 0 5 cbr 500 ------- 1 1.0 5.0-------- 1 1.0 5.0 0 0
- 0.114 0 5 cbr 500 ------- 1 1.0 5.0 0 0
+ 0.115 1 0 cbr 500 ------- 1 1.0 5.0 3 3
- 0.115 1 0 cbr 500 ------- 1 1.0 5.0 3 3
r 0.119 1 0 cbr 500 ------- 1 1.0 5.0 1 1
+ 0.119 0 5 cbr 500 ------- 1 1.0 5.0 1 1
+ 0.12 1 0 cbr 500 ------- 1 1.0 5.0 4 4
- 0.12 1 0 cbr 500 ------- 1 1.0 5.0 4 4
- 0.122 0 5 cbr 500 ------- 1 1.0 5.0 1 1
r 0.124 1 0 cbr 500 ------- 1 1.0 5.0 2 2
+ 0.124 0 5 cbr 500 ------- 1 1.0 5.0 2 2
+ 0.125 1 0 cbr 500 ------- 1 1.0 5.0 5 5
- 0.125 1 0 cbr 500 ------- 1 1.0 5.0 5 5-- 1 1.0 5.0 0 0
- 0.114 0 5 cbr 500 ------- 1 1.0 5.0 0----- 1 1.0 5.0 0 0
- 0.114 0 5 cbr 500 ------- 1 1.0 5.0 0 0
+ 0.115 1 0 cbr 500 ------- 1 1.0 5.0 3 3
- 0.115 1 0 cbr 500 ------- 1 1.0 5.0 3 3
r 0.119 1 0 cbr 500 ------- 1 1.0 5.0 1 1
+ 0.119 0 5 cbr 500 ------- 1 1.0 5.0 1 1
+ 0.12 1 0 cbr 500 ------- 1 1.0 5.0 4 4
- 0.12 1 0 cbr 500 ------- 1 1.0 5.0 4 4
- 0.122 0 5 cbr 500 ------- 1 1.0 5.0 1 1
r 0.124 1 0 cbr 500 ------- 1 1.0 5.0 2 2
+ 0.124 0 5 cbr 500 ------- 1 1.0 5.0 2 2
+ 0.125 1 0 cbr 500 ------- 1 1.0 5.0 5 5
- 0.125 1 0 cbr 500 ------- 1 1.0 5.0 5 5 0
+ 0.115 1 0 cbr 500 ------- 1 1.0 5.0 3----- 1 1.0 5.0 0 0
- 0.114 0 5 cbr 500 ------- 1 1.0 5.0 0 0
+ 0.115 1 0 cbr 500 ------- 1 1.0 5.0 3 3
- 0.115 1 0 cbr 500 ------- 1 1.0 5.0 3 3
r 0.119 1 0 cbr 500 ------- 1 1.0 5.0 1 1
+ 0.119 0 5 cbr 500 ------- 1 1.0 5.0 1 1
+ 0.12 1 0 cbr 500 ------- 1 1.0 5.0 4 4
- 0.12 1 0 cbr 500 ------- 1 1.0 5.0 4 4
- 0.122 0 5 cbr 500 ------- 1 1.0 5.0 1 1
r 0.124 1 0 cbr 500 ------- 1 1.0 5.0 2 2
+ 0.124 0 5 cbr 500 ------- 1 1.0 5.0 2 2
+ 0.125 1 0 cbr 500 ------- 1 1.0 5.0 5----- 1 1.0 5.0 0 0
- 0.114 0 5 cbr 500 ------- 1 1.0 5.0 0 0
+ 0.115 1 0 cbr 500 ------- 1 1.0 5.0 3 3
- 0.115 1 0 cbr 500 ------- 1 1.0 5.0 3 3
r 0.119 1 0 cbr 500 ------- 1 1.0 5.0 1 1
+ 0.119 0 5 cbr 500 ------- 1 1.0 5.0 1 1
+ 0.12 1 0 cbr 500 ------- 1 1.0 5.0 4 4
- 0.12 1 0 cbr 500 ------- 1 1.0 5.0 4 4
- 0.122 0 5 cbr 500 ------- 1 1.0 5.0 1 1
r 0.124 1 0 cbr 500 ------- 1 1.0 5.0 2 2
+ 0.124 0 5 cbr 500 ------- 1 1.0 5.0 2 2
+ 0.125 1 0 cbr 500 ------- 1 1.0 5.0 5 5
- 0.125 1 0 cbr 500 ------- 1 1.0 5.0 5 5 5
- 0.125 1 0 cbr 500 ------- 1 1.0 5.0 5 5 3
- 0.115 1 0 cbr 500 ------- 1 1.0 5.0 3 3
r 0.119 1 0 cbr 500 ------- 1 1.0 5.0 1 1
+ 0.119 0 5 cbr 500 ------- 1 1.0 5.0 1 1
+ 0.12 1 0 cbr 500 ------- 1 1.0 5.0 4 4
- 0.12 1 0 cbr 500 ------- 1 1.0 5.0 4 4
- 0.122 0 5 cbr 500 ------- 1 1.0 5.0 1 1
r 0.124 1 0 cbr 500 ------- 1 1.0 5.0 2 2
+ 0.124 0 5 cbr 500 ------- 1 1.0 5.0 2 2
+ 0.125 1 0 cbr 500 ------- 1 1.0 5.0 5 5
- 0.125 1 0 cbr 500 ------- 1 1.0 5.0 5 51 1
+ 0.14 1 0 cbr 500 ------- 1 1.0 5.0----- 1 1.0 5.0 0 0
- 0.114 0 5 cbr 500 ------- 1 1.0 5.0 0 0
+ 0.115 1 0 cbr 500 ------- 1 1.0 5.0 3 3
- 0.115 1 0 cbr 500 ------- 1 1.0 5.0 3 3
r 0.119 1 0 cbr 500 ------- 1 1.0 5.0 1 1
+ 0.119 0 5 cbr 500 ------- 1 1.0 5.0 1 1
+ 0.12 1 0 cbr 500 ------- 1 1.0 5.0 4 4
- 0.12 1 0 cbr 500 ------- 1 1.0 5.0 4 4
- 0.122 0 5 cbr 500 ------- 1 1.0 5.0 1 1
r 0.124 1 0 cbr 500 ------- 1 1.0 5.0 2 2
+ 0.124 0 5 cbr 500 ------- 1 1.0 5.0 2 2
+ 0.125 1 0 cbr 500 ------- 1 1.0 5.0 5 5
- 0.125 1 0 cbr 500 ------- 1 1.0 5.0 5 58 8
- 0.14 1 0 cbr 500 ------- 1 1.0 5.0----- 1 1.0 5.0 0 0
- 0.114 0 5 cbr 500 ------- 1 1.0 5.0 0 0
+ 0.115 1 0 cbr 500 ------- 1 1.0 5.0 3 3
- 0.115 1 0 cbr 500 ------- 1 1.0 5.0 3 3
r 0.119 1 0 cbr 500 ------- 1 1.0 5.0 1 1
+ 0.119 0 5 cbr 500 ------- 1 1.0 5.0 1 1
+ 0.12 1 0 cbr 500 ------- 1 1.0 5.0 4 4
- 0.12 1 0 cbr 500 ------- 1 1.0 5.0 4 4
- 0.122 0 5 cbr 500 ------- 1 1.0 5.0 1 1
r 0.124 1 0 cbr 500 ------- 1 1.0 5.0 2 2
+ 0.124 0 5 cbr 500 ------- 1 1.0 5.0 2 2
+ 0.125 1 0 cbr 500 ------- 1 1.0 5.0 5 5
- 0.125 1 0 cbr 500 ------- 1 1.0 5.0 5 58 8
r 0.144 1 0 cbr 500 ------- 1 1.0 5.----- 1 1.0 5.0 0 0
- 0.114 0 5 cbr 500 ------- 1 1.0 5.0 0 0
+ 0.115 1 0 cbr 500 ------- 1 1.0 5.0 3 3
- 0.115 1 0 cbr 500 ------- 1 1.0 5.0 3 3
r 0.119 1 0 cbr 500 ------- 1 1.0 5.0 1 1
+ 0.119 0 5 cbr 500 ------- 1 1.0 5.0 1 1
+ 0.12 1 0 cbr 500 ------- 1 1.0 5.0 4 4
- 0.12 1 0 cbr 500 ------- 1 1.0 5.0 4 4
- 0.122 0 5 cbr 500 ------- 1 1.0 5.0 1 1
r 0.124 1 0 cbr 500 ------- 1 1.0 5.0 2 2
+ 0.124 0 5 cbr 500 ------- 1 1.0 5.0 2 2
+ 0.125 1 0 cbr 500 ------- 1 1.0 5.0 5 5
- 0.125 1 0 cbr 500 ------- 1 1.0 5.0 5 5 6 6
+ 0.144 0 5 cbr 500 ------- 1 1.0 5.----- 1 1.0 5.0 0 0
- 0.114 0 5 cbr 500 ------- 1 1.0 5.0 0 0
+ 0.115 1 0 cbr 500 ------- 1 1.0 5.0 3 3
- 0.115 1 0 cbr 500 ------- 1 1.0 5.0 3 3
r 0.119 1 0 cbr 500 ------- 1 1.0 5.0 1 1
+ 0.119 0 5 cbr 500 ------- 1 1.0 5.0 1 1
+ 0.12 1 0 cbr 500 ------- 1 1.0 5.0 4 4
- 0.12 1 0 cbr 500 ------- 1 1.0 5.0 4 4
- 0.122 0 5 cbr 500 ------- 1 1.0 5.0 1 1
r 0.124 1 0 cbr 500 ------- 1 1.0 5.0 2 2
+ 0.124 0 5 cbr 500 ------- 1 1.0 5.0 2 2
+ 0.125 1 0 cbr 500 ------- 1 1.0 5.0 5 5
- 0.125 1 0 cbr 500 ------- 1 1.0 5.0 5 5 6 6
+ 0.145 1 0 cbr 500 ------- 1 1.0 5.----- 1 1.0 5.0 0 0
- 0.114 0 5 cbr 500 ------- 1 1.0 5.0 0 0
+ 0.115 1 0 cbr 500 ------- 1 1.0 5.0 3 3
- 0.115 1 0 cbr 500 ------- 1 1.0 5.0 3 3
r 0.119 1 0 cbr 500 ------- 1 1.0 5.0 1 1
+ 0.119 0 5 cbr 500 ------- 1 1.0 5.0 1 1
+ 0.12 1 0 cbr 500 ------- 1 1.0 5.0 4 4
- 0.12 1 0 cbr 500 ------- 1 1.0 5.0 4 4
- 0.122 0 5 cbr 500 ------- 1 1.0 5.0 1 1
r 0.124 1 0 cbr 500 ------- 1 1.0 5.0 2 2
+ 0.124 0 5 cbr 500 ------- 1 1.0 5.0 2 2
+ 0.125 1 0 cbr 500 ------- 1 1.0 5.0 5 5
- 0.125 1 0 cbr 500 ------- 1 1.0 5.0 5 5 9 9
- 0.145 1 0 cbr 500 ------- 1 1.0 5.----- 1 1.0 5.0 0 0
- 0.114 0 5 cbr 500 ------- 1 1.0 5.0 0 0
+ 0.115 1 0 cbr 500 ------- 1 1.0 5.0 3 3
- 0.115 1 0 cbr 500 ------- 1 1.0 5.0 3 3
r 0.119 1 0 cbr 500 ------- 1 1.0 5.0 1 1
+ 0.119 0 5 cbr 500 ------- 1 1.0 5.0 1 1
+ 0.12 1 0 cbr 500 ------- 1 1.0 5.0 4 4
- 0.12 1 0 cbr 500 ------- 1 1.0 5.0 4 4
- 0.122 0 5 cbr 500 ------- 1 1.0 5.0 1 1
r 0.124 1 0 cbr 500 ------- 1 1.0 5.0 2 2
+ 0.124 0 5 cbr 500 ------- 1 1.0 5.0 2 2
+ 0.125 1 0 cbr 500 ------- 1 1.0 5.0 5 5
- 0.125 1 0 cbr 500 ------- 1 1.0 5.0 5 5 9 9
- 0.146 0 5 cbr 500 ------- 1 1.0 5.----- 1 1.0 5.0 0 0
- 0.114 0 5 cbr 500 ------- 1 1.0 5.0 0 0
+ 0.115 1 0 cbr 500 ------- 1 1.0 5.0 3 3
- 0.115 1 0 cbr 500 ------- 1 1.0 5.0 3 3
r 0.119 1 0 cbr 500 ------- 1 1.0 5.0 1 1
+ 0.119 0 5 cbr 500 ------- 1 1.0 5.0 1 1
+ 0.12 1 0 cbr 500 ------- 1 1.0 5.0 4 4
- 0.12 1 0 cbr 500 ------- 1 1.0 5.0 4 4
- 0.122 0 5 cbr 500 ------- 1 1.0 5.0 1 1
r 0.124 1 0 cbr 500 ------- 1 1.0 5.0 2 2
+ 0.124 0 5 cbr 500 ------- 1 1.0 5.0 2 2
+ 0.125 1 0 cbr 500 ------- 1 1.0 5.0 5 5
- 0.125 1 0 cbr 500 ------- 1 1.0 5.0 5 5 4 4
r 0.148 0 5 cbr 500 ------- 1 1.0 5.----- 1 1.0 5.0 0 0
- 0.114 0 5 cbr 500 ------- 1 1.0 5.0 0 0
+ 0.115 1 0 cbr 500 ------- 1 1.0 5.0 3 3
- 0.115 1 0 cbr 500 ------- 1 1.0 5.0 3 3
r 0.119 1 0 cbr 500 ------- 1 1.0 5.0 1 1
+ 0.119 0 5 cbr 500 ------- 1 1.0 5.0 1 1
+ 0.12 1 0 cbr 500 ------- 1 1.0 5.0 4 4
- 0.12 1 0 cbr 500 ------- 1 1.0 5.0 4 4
- 0.122 0 5 cbr 500 ------- 1 1.0 5.0 1 1
r 0.124 1 0 cbr 500 ------- 1 1.0 5.0 2 2
+ 0.124 0 5 cbr 500 ------- 1 1.0 5.0 2 2
+ 0.125 1 0 cbr 500 ------- 1 1.0 5.0 5 5
- 0.125 1 0 cbr 500 ------- 1 1.0 5.0 5 5 2 2
r 0.149 1 0 cbr 500 ------- 1 1.0 5.----- 1 1.0 5.0 0 0
- 0.114 0 5 cbr 500 ------- 1 1.0 5.0 0 0
+ 0.115 1 0 cbr 500 ------- 1 1.0 5.0 3 3
- 0.115 1 0 cbr 500 ------- 1 1.0 5.0 3 3
r 0.119 1 0 cbr 500 ------- 1 1.0 5.0 1 1
+ 0.119 0 5 cbr 500 ------- 1 1.0 5.0 1 1
+ 0.12 1 0 cbr 500 ------- 1 1.0 5.0 4 4
- 0.12 1 0 cbr 500 ------- 1 1.0 5.0 4 4
- 0.122 0 5 cbr 500 ------- 1 1.0 5.0 1 1
r 0.124 1 0 cbr 500 ------- 1 1.0 5.0 2 2
+ 0.124 0 5 cbr 500 ------- 1 1.0 5.0 2 2
+ 0.125 1 0 cbr 500 ------- 1 1.0 5.0 5 5
- 0.125 1 0 cbr 500 ------- 1 1.0 5.0 5 5 7 7
+ 0.149 0 5 cbr 500 ------- 1 1.0 5.----- 1 1.0 5.0 0 0
- 0.114 0 5 cbr 500 ------- 1 1.0 5.0 0 0
+ 0.115 1 0 cbr 500 ------- 1 1.0 5.0 3 3
- 0.115 1 0 cbr 500 ------- 1 1.0 5.0 3 3
r 0.119 1 0 cbr 500 ------- 1 1.0 5.0 1 1
+ 0.119 0 5 cbr 500 ------- 1 1.0 5.0 1 1
+ 0.12 1 0 cbr 500 ------- 1 1.0 5.0 4 4
- 0.12 1 0 cbr 500 ------- 1 1.0 5.0 4 4
- 0.122 0 5 cbr 500 ------- 1 1.0 5.0 1 1
r 0.124 1 0 cbr 500 ------- 1 1.0 5.0 2 2
+ 0.124 0 5 cbr 500 ------- 1 1.0 5.0 2 2
+ 0.125 1 0 cbr 500 ------- 1 1.0 5.0 5 5
- 0.125 1 0 cbr 500 ------- 1 1.0 5.0 5 5 7 7
+ 0.15 1 0 cbr 500 ------- 1 1.0 5.0----- 1 1.0 5.0 0 0
- 0.114 0 5 cbr 500 ------- 1 1.0 5.0 0 0
+ 0.115 1 0 cbr 500 ------- 1 1.0 5.0 3 3
- 0.115 1 0 cbr 500 ------- 1 1.0 5.0 3 3
r 0.119 1 0 cbr 500 ------- 1 1.0 5.0 1 1
+ 0.119 0 5 cbr 500 ------- 1 1.0 5.0 1 1
+ 0.12 1 0 cbr 500 ------- 1 1.0 5.0 4 4
- 0.12 1 0 cbr 500 ------- 1 1.0 5.0 4 4
- 0.122 0 5 cbr 500 ------- 1 1.0 5.0 1 1
r 0.124 1 0 cbr 500 ------- 1 1.0 5.0 2 2
+ 0.124 0 5 cbr 500 ------- 1 1.0 5.0 2 2
+ 0.125 1 0 cbr 500 ------- 1 1.0 5.0 5 5
- 0.125 1 0 cbr 500 ------- 1 1.0 5.0 5 510 10
- 0.15 1 0 cbr 500 ------- 1 1.0 5.0----- 1 1.0 5.0 0 0
- 0.114 0 5 cbr 500 ------- 1 1.0 5.0 0 0
+ 0.115 1 0 cbr 500 ------- 1 1.0 5.0 3 3
- 0.115 1 0 cbr 500 ------- 1 1.0 5.0 3 3
r 0.119 1 0 cbr 500 ------- 1 1.0 5.0 1 1
+ 0.119 0 5 cbr 500 ------- 1 1.0 5.0 1 1
+ 0.12 1 0 cbr 500 ------- 1 1.0 5.0 4 4
- 0.12 1 0 cbr 500 ------- 1 1.0 5.0 4 4
- 0.122 0 5 cbr 500 ------- 1 1.0 5.0 1 1
r 0.124 1 0 cbr 500 ------- 1 1.0 5.0 2 2
+ 0.124 0 5 cbr 500 ------- 1 1.0 5.0 2 2
+ 0.125 1 0 cbr 500 ------- 1 1.0 5.0 5 5
- 0.125 1 0 cbr 500 ------- 1 1.0 5.0 5 510 10
- 0.154 0 5 cbr 500 ------- 1 1.0 5.----- 1 1.0 5.0 0 0
- 0.114 0 5 cbr 500 ------- 1 1.0 5.0 0 0
+ 0.115 1 0 cbr 500 ------- 1 1.0 5.0 3 3
- 0.115 1 0 cbr 500 ------- 1 1.0 5.0 3 3
r 0.119 1 0 cbr 500 ------- 1 1.0 5.0 1 1
+ 0.119 0 5 cbr 500 ------- 1 1.0 5.0 1 1
+ 0.12 1 0 cbr 500 ------- 1 1.0 5.0 4 4
- 0.12 1 0 cbr 500 ------- 1 1.0 5.0 4 4
- 0.122 0 5 cbr 500 ------- 1 1.0 5.0 1 1
r 0.124 1 0 cbr 500 ------- 1 1.0 5.0 2 2
+ 0.124 0 5 cbr 500 ------- 1 1.0 5.0 2 2
+ 0.125 1 0 cbr 500 ------- 1 1.0 5.0 5 5
- 0.125 1 0 cbr 500 ------- 1 1.0 5.0 5 5 5 5
r 0.154 1 0 cbr 500 ------- 1 1.0 5.----- 1 1.0 5.0 0 0
- 0.114 0 5 cbr 500 ------- 1 1.0 5.0 0 0
+ 0.115 1 0 cbr 500 ------- 1 1.0 5.0 3 3
- 0.115 1 0 cbr 500 ------- 1 1.0 5.0 3 3
r 0.119 1 0 cbr 500 ------- 1 1.0 5.0 1 1
+ 0.119 0 5 cbr 500 ------- 1 1.0 5.0 1 1
+ 0.12 1 0 cbr 500 ------- 1 1.0 5.0 4 4
- 0.12 1 0 cbr 500 ------- 1 1.0 5.0 4 4
- 0.122 0 5 cbr 500 ------- 1 1.0 5.0 1 1
r 0.124 1 0 cbr 500 ------- 1 1.0 5.0 2 2
+ 0.124 0 5 cbr 500 ------- 1 1.0 5.0 2 2
+ 0.125 1 0 cbr 500 ------- 1 1.0 5.0 5 5
- 0.125 1 0 cbr 500 ------- 1 1.0 5.0 5 5 8 8
+ 0.154 0 5 cbr 500 ------- 1 1.0 5.0 8 8
+ 0.155 1 0 cbr 500 ------- 1 1.0 5.0 11 11
- 0.155 1 0 cbr 500 ------- 1 1.0 5.0 11 11
r 0.156 0 5 cbr 500 ------- 1 1.0 5.0 3 3
r 0.159 1 0 cbr 500 ------- 1 1.0 5.0 9 9
+ 0.159 0 5 cbr 500 ------- 1 1.0 5.0 9 9
+ 0.16 1 0 cbr 500 ------- 1 1.0 5.0 12 12
- 0.16 1 0 cbr 500 ------- 1 1.0 5.0 12 12
- 0.162 0 5 cbr 500 ------- 1 1.0 5.0 6 6
r 0.164 0 5 cbr 500 ------- 1 1.0 5.0 4 4
r 0.164 1 0 cbr 500 ------- 1 1.0 5.0 10 10
+ 0.164 0 5 cbr 500 ------- 1 1.0 5.0 10 10
+ 0.165 1 0 cbr 500 ------- 1 1.0 5.0 13 13
- 0.165 1 0 cbr 500 ------- 1 1.0 5.0 13 13
r 0.169 1 0 cbr 500 ------- 1 1.0 5.0 11 11
+ 0.169 0 5 cbr 500 ------- 1 1.0 5.0 11 11
- 0.17 0 5 cbr 500 ------- 1 1.0 5.0 7 7
+ 0.17 1 0 cbr 500 ------- 1 1.0 5.0 14 14
- 0.17 1 0 cbr 500 ------- 1 1.0 5.0 14 14
r 0.172 0 5 cbr 500 ------- 1 1.0 5.0 5 5
r 0.174 1 0 cbr 500 ------- 1 1.0 5.0 12 12
+ 0.174 0 5 cbr 500 ------- 1 1.0 5.0 12 12
+ 0.175 1 0 cbr 500 ------- 1 1.0 5.0 15 15
- 0.175 1 0 cbr 500 ------- 1 1.0 5.0 15 15
- 0.178 0 5 cbr 500 ------- 1 1.0 5.0 8 8
r 0.179 1 0 cbr 500 ------- 1 1.0 5.0 13 13
+ 0.179 0 5 cbr 500 ------- 1 1.0 5.0 13 13
r 0.18 0 5 cbr 500 ------- 1 1.0 5.0 6 6
+ 0.18 1 0 cbr 500 ------- 1 1.0 5.0 16 16
- 0.18 1 0 cbr 500 ------- 1 1.0 5.0 16 16
r 0.184 1 0 cbr 500 ------- 1 1.0 5.0 14 14
+ 0.184 0 5 cbr 500 ------- 1 1.0 5.0 14 14
+ 0.185 1 0 cbr 500 ------- 1 1.0 5.0 17 17
- 0.185 1 0 cbr 500 ------- 1 1.0 5.0 17 17
- 0.186 0 5 cbr 500 ------- 1 1.0 5.0 9 9
r 0.188 0 5 cbr 500 ------- 1 1.0 5.0 7 7
r 0.189 1 0 cbr 500 ------- 1 1.0 5.0 15 15
+ 0.189 0 5 cbr 500 ------- 1 1.0 5.0 15 15
+ 0.19 1 0 cbr 500 ------- 1 1.0 5.0 18 18
- 0.19 1 0 cbr 500 ------- 1 1.0 5.0 18 18
- 0.194 0 5 cbr 500 ------- 1 1.0 5.0 10 10
r 0.194 1 0 cbr 500 ------- 1 1.0 5.0 16 16
+ 0.194 0 5 cbr 500 ------- 1 1.0 5.0 16 16
+ 0.195 1 0 cbr 500 ------- 1 1.0 5.0 19 19
- 0.195 1 0 cbr 500 ------- 1 1.0 5.0 19 19
r 0.196 0 5 cbr 500 ------- 1 1.0 5.0 8 8
r 0.199 1 0 cbr 500 ------- 1 1.0 5.0 17 17
+ 0.199 0 5 cbr 500 ------- 1 1.0 5.0 17 17
+ 0.2 0 5 tcp 40 ------- 2 0.0 4.0 0 20
+ 0.2 1 0 cbr 500 ------- 1 1.0 5.0 20 21
- 0.2 1 0 cbr 500 ------- 1 1.0 5.0 20 21
- 0.202 0 5 cbr 500 ------- 1 1.0 5.0 11 11
r 0.204 0 5 cbr 500 ------- 1 1.0 5.0 9 9
r 0.204 1 0 cbr 500 ------- 1 1.0 5.0 18 18
+ 0.204 0 5 cbr 500 ------- 1 1.0 5.0 18 18
+ 0.205 1 0 cbr 500 ------- 1 1.0 5.0 21 22
- 0.205 1 0 cbr 500 ------- 1 1.0 5.0 21 22
r 0.209 1 0 cbr 500 ------- 1 1.0 5.0 19 19
+ 0.209 0 5 cbr 500 ------- 1 1.0 5.0 19 19
- 0.21 0 5 cbr 500 ------- 1 1.0 5.0 12 12
+ 0.21 1 0 cbr 500 ------- 1 1.0 5.0 22 23
- 0.21 1 0 cbr 500 ------- 1 1.0 5.0 22 23
r 0.212 0 5 cbr 500 ------- 1 1.0 5.0 10 10
r 0.214 1 0 cbr 500 ------- 1 1.0 5.0 20 21
+ 0.214 0 5 cbr 500 ------- 1 1.0 5.0 20 21
+ 0.215 1 0 cbr 500 ------- 1 1.0 5.0 23 24
- 0.215 1 0 cbr 500 ------- 1 1.0 5.0 23 24
- 0.218 0 5 cbr 500 ------- 1 1.0 5.0 13 13
r 0.219 1 0 cbr 500 ------- 1 1.0 5.0 21 22
+ 0.219 0 5 cbr 500 ------- 1 1.0 5.0 21 22
r 0.22 0 5 cbr 500 ------- 1 1.0 5.0 11 11
+ 0.22 1 0 cbr 500 ------- 1 1.0 5.0 24 25
- 0.22 1 0 cbr 500 ------- 1 1.0 5.0 24 25
r 0.224 1 0 cbr 500 ------- 1 1.0 5.0 22 23
+ 0.224 0 5 cbr 500 ------- 1 1.0 5.0 22 23
+ 0.225 1 0 cbr 500 ------- 1 1.0 5.0 25 26
- 0.225 1 0 cbr 500 ------- 1 1.0 5.0 25 26
- 0.226 0 5 cbr 500 ------- 1 1.0 5.0 14 14
r 0.228 0 5 cbr 500 ------- 1 1.0 5.0 12 12
r 0.229 1 0 cbr 500 ------- 1 1.0 5.0 23 24
+ 0.229 0 5 cbr 500 ------- 1 1.0 5.0 23 24
+ 0.23 1 0 cbr 500 ------- 1 1.0 5.0 26 27
- 0.23 1 0 cbr 500 ------- 1 1.0 5.0 26 27
- 0.234 0 5 cbr 500 ------- 1 1.0 5.0 15 15
r 0.234 1 0 cbr 500 ------- 1 1.0 5.0 24 25
+ 0.234 0 5 cbr 500 ------- 1 1.0 5.0 24 25
+ 0.235 1 0 cbr 500 ------- 1 1.0 5.0 27 28
- 0.235 1 0 cbr 500 ------- 1 1.0 5.0 27 28
r 0.236 0 5 cbr 500 ------- 1 1.0 5.0 13 13
r 0.239 1 0 cbr 500 ------- 1 1.0 5.0 25 26
+ 0.239 0 5 cbr 500 ------- 1 1.0 5.0 25 26
+ 0.24 1 0 cbr 500 ------- 1 1.0 5.0 28 29
- 0.24 1 0 cbr 500 ------- 1 1.0 5.0 28 29
- 0.242 0 5 cbr 500 ------- 1 1.0 5.0 16 16
r 0.244 0 5 cbr 500 ------- 1 1.0 5.0 14 14
r 0.244 1 0 cbr 500 ------- 1 1.0 5.0 26 27
+ 0.244 0 5 cbr 500 ------- 1 1.0 5.0 26 27
+ 0.245 1 0 cbr 500 ------- 1 1.0 5.0 29 30
- 0.245 1 0 cbr 500 ------- 1 1.0 5.0 29 30
r 0.249 1 0 cbr 500 ------- 1 1.0 5.0 27 28
+ 0.249 0 5 cbr 500 ------- 1 1.0 5.0 27 28
- 0.25 0 5 cbr 500 ------- 1 1.0 5.0 17 17
+ 0.25 1 0 cbr 500 ------- 1 1.0 5.0 30 31
- 0.25 1 0 cbr 500 ------- 1 1.0 5.0 30 31
r 0.252 0 5 cbr 500 ------- 1 1.0 5.0 15 15
r 0.254 1 0 cbr 500 ------- 1 1.0 5.0 28 29
+ 0.254 0 5 cbr 500 ------- 1 1.0 5.0 28 29
+ 0.255 1 0 cbr 500 ------- 1 1.0 5.0 31 32
- 0.255 1 0 cbr 500 ------- 1 1.0 5.0 31 32
- 0.258 0 5 tcp 40 ------- 2 0.0 4.0 0 20
- 0.25864 0 5 cbr 500 ------- 1 1.0 5.0 18 18
r 0.259 1 0 cbr 500 ------- 1 1.0 5.0 29 30
+ 0.259 0 5 cbr 500 ------- 1 1.0 5.0 29 30
r 0.26 0 5 cbr 500 ------- 1 1.0 5.0 16 16
+ 0.26 1 0 cbr 500 ------- 1 1.0 5.0 32 33
- 0.26 1 0 cbr 500 ------- 1 1.0 5.0 32 33
r 0.264 1 0 cbr 500 ------- 1 1.0 5.0 30 31
+ 0.264 0 5 cbr 500 ------- 1 1.0 5.0 30 31
+ 0.265 1 0 cbr 500 ------- 1 1.0 5.0 33 34
- 0.265 1 0 cbr 500 ------- 1 1.0 5.0 33 34
- 0.26664 0 5 cbr 500 ------- 1 1.0 5.0 19 19
r 0.268 0 5 cbr 500 ------- 1 1.0 5.0 17 17
r 0.26864 0 5 tcp 40 ------- 2 0.0 4.0 0 20
+ 0.26864 5 4 tcp 40 ------- 2 0.0 4.0 0 20
- 0.26864 5 4 tcp 40 ------- 2 0.0 4.0 0 20
r 0.269 1 0 cbr 500 ------- 1 1.0 5.0 31 32
+ 0.269 0 5 cbr 500 ------- 1 1.0 5.0 31 32
+ 0.27 1 0 cbr 500 ------- 1 1.0 5.0 34 35
- 0.27 1 0 cbr 500 ------- 1 1.0 5.0 34 35
r 0.274 1 0 cbr 500 ------- 1 1.0 5.0 32 33
+ 0.274 0 5 cbr 500 ------- 1 1.0 5.0 32 33
- 0.27464 0 5 cbr 500 ------- 1 1.0 5.0 20 21
+ 0.275 1 0 cbr 500 ------- 1 1.0 5.0 35 36
- 0.275 1 0 cbr 500 ------- 1 1.0 5.0 35 36
r 0.27664 0 5 cbr 500 ------- 1 1.0 5.0 18 18
r 0.27896 5 4 tcp 40 ------- 2 0.0 4.0 0 20
+ 0.27896 4 5 ack 40 ------- 2 4.0 0.0 0 37
- 0.27896 4 5 ack 40 ------- 2 4.0 0.0 0 37
r 0.279 1 0 cbr 500 ------- 1 1.0 5.0 33 34
+ 0.279 0 5 cbr 500 ------- 1 1.0 5.0 33 34
+ 0.28 1 0 cbr 500 ------- 1 1.0 5.0 36 38
- 0.28 1 0 cbr 500 ------- 1 1.0 5.0 36 38
- 0.28264 0 5 cbr 500 ------- 1 1.0 5.0 21 22
r 0.284 1 0 cbr 500 ------- 1 1.0 5.0 34 35
+ 0.284 0 5 cbr 500 ------- 1 1.0 5.0 34 35
r 0.28464 0 5 cbr 500 ------- 1 1.0 5.0 19 19
+ 0.285 1 0 cbr 500 ------- 1 1.0 5.0 37 39
- 0.285 1 0 cbr 500 ------- 1 1.0 5.0 37 39
r 0.289 1 0 cbr 500 ------- 1 1.0 5.0 35 36
+ 0.289 0 5 cbr 500 ------- 1 1.0 5.0 35 36
r 0.28928 4 5 ack 40 ------- 2 4.0 0.0 0 37
+ 0.28928 5 0 ack 40 ------- 2 4.0 0.0 0 37
- 0.28928 5 0 ack 40 ------- 2 4.0 0.0 0 37
+ 0.29 1 0 cbr 500 ------- 1 1.0 5.0 38 40
- 0.29 1 0 cbr 500 ------- 1 1.0 5.0 38 40
- 0.29064 0 5 cbr 500 ------- 1 1.0 5.0 22 23
r 0.29264 0 5 cbr 500 ------- 1 1.0 5.0 20 21
r 0.294 1 0 cbr 500 ------- 1 1.0 5.0 36 38
+ 0.294 0 5 cbr 500 ------- 1 1.0 5.0 36 38
+ 0.295 1 0 cbr 500 ------- 1 1.0 5.0 39 41
- 0.295 1 0 cbr 500 ------- 1 1.0 5.0 39 41
- 0.29864 0 5 cbr 500 ------- 1 1.0 5.0 23 24
r 0.299 1 0 cbr 500 ------- 1 1.0 5.0 37 39
+ 0.299 0 5 cbr 500 ------- 1 1.0 5.0 37 39
r 0.29992 5 0 ack 40 ------- 2 4.0 0.0 0 37
+ 0.29992 0 5 tcp 1040 ------- 2 0.0 4.0 1 42
+ 0.29992 0 5 tcp 1040 ------- 2 0.0 4.0 2 43
+ 0.3 1 0 cbr 500 ------- 1 1.0 5.0 40 44
- 0.3 1 0 cbr 500 ------- 1 1.0 5.0 40 44
r 0.30064 0 5 cbr 500 ------- 1 1.0 5.0 21 22
r 0.304 1 0 cbr 500 ------- 1 1.0 5.0 38 40
+ 0.304 0 5 cbr 500 ------- 1 1.0 5.0 38 40
+ 0.305 1 0 cbr 500 ------- 1 1.0 5.0 41 45
- 0.305 1 0 cbr 500 ------- 1 1.0 5.0 41 45
- 0.30664 0 5 cbr 500 ------- 1 1.0 5.0 24 25
r 0.30864 0 5 cbr 500 ------- 1 1.0 5.0 22 23
r 0.309 1 0 cbr 500 ------- 1 1.0 5.0 39 41
+ 0.309 0 5 cbr 500 ------- 1 1.0 5.0 39 41
+ 0.31 1 0 cbr 500 ------- 1 1.0 5.0 42 46
- 0.31 1 0 cbr 500 ------- 1 1.0 5.0 42 46
r 0.314 1 0 cbr 500 ------- 1 1.0 5.0 40 44
+ 0.314 0 5 cbr 500 ------- 1 1.0 5.0 40 44
- 0.31464 0 5 cbr 500 ------- 1 1.0 5.0 25 26
+ 0.315 1 0 cbr 500 ------- 1 1.0 5.0 43 47
- 0.315 1 0 cbr 500 ------- 1 1.0 5.0 43 47
r 0.31664 0 5 cbr 500 ------- 1 1.0 5.0 23 24
r 0.319 1 0 cbr 500 ------- 1 1.0 5.0 41 45
+ 0.319 0 5 cbr 500 ------- 1 1.0 5.0 41 45
+ 0.32 1 0 cbr 500 ------- 1 1.0 5.0 44 48
- 0.32 1 0 cbr 500 ------- 1 1.0 5.0 44 48
- 0.32264 0 5 cbr 500 ------- 1 1.0 5.0 26 27
r 0.324 1 0 cbr 500 ------- 1 1.0 5.0 42 46
+ 0.324 0 5 cbr 500 ------- 1 1.0 5.0 42 46
r 0.32464 0 5 cbr 500 ------- 1 1.0 5.0 24 25
+ 0.325 1 0 cbr 500 ------- 1 1.0 5.0 45 49
- 0.325 1 0 cbr 500 ------- 1 1.0 5.0 45 49
r 0.329 1 0 cbr 500 ------- 1 1.0 5.0 43 47
+ 0.329 0 5 cbr 500 ------- 1 1.0 5.0 43 47
+ 0.33 1 0 cbr 500 ------- 1 1.0 5.0 46 50
- 0.33 1 0 cbr 500 ------- 1 1.0 5.0 46 50
- 0.33064 0 5 cbr 500 ------- 1 1.0 5.0 27 28
r 0.33264 0 5 cbr 500 ------- 1 1.0 5.0 25 26
r 0.334 1 0 cbr 500 ------- 1 1.0 5.0 44 48
+ 0.334 0 5 cbr 500 ------- 1 1.0 5.0 44 48
+ 0.335 1 0 cbr 500 ------- 1 1.0 5.0 47 51
- 0.335 1 0 cbr 500 ------- 1 1.0 5.0 47 51
- 0.33864 0 5 cbr 500 ------- 1 1.0 5.0 28 29
r 0.339 1 0 cbr 500 ------- 1 1.0 5.0 45 49
+ 0.339 0 5 cbr 500 ------- 1 1.0 5.0 45 49
+ 0.34 1 0 cbr 500 ------- 1 1.0 5.0 48 52
- 0.34 1 0 cbr 500 ------- 1 1.0 5.0 48 52
r 0.34064 0 5 cbr 500 ------- 1 1.0 5.0 26 27
r 0.344 1 0 cbr 500 ------- 1 1.0 5.0 46 50
+ 0.344 0 5 cbr 500 ------- 1 1.0 5.0 46 50
+ 0.345 1 0 cbr 500 ------- 1 1.0 5.0 49 53
- 0.345 1 0 cbr 500 ------- 1 1.0 5.0 49 53
- 0.34664 0 5 cbr 500 ------- 1 1.0 5.0 29 30
r 0.34864 0 5 cbr 500 ------- 1 1.0 5.0 27 28
r 0.349 1 0 cbr 500 ------- 1 1.0 5.0 47 51
+ 0.349 0 5 cbr 500 ------- 1 1.0 5.0 47 51
+ 0.35 1 0 cbr 500 ------- 1 1.0 5.0 50 54
- 0.35 1 0 cbr 500 ------- 1 1.0 5.0 50 54
r 0.354 1 0 cbr 500 ------- 1 1.0 5.0 48 52
+ 0.354 0 5 cbr 500 ------- 1 1.0 5.0 48 52
- 0.35464 0 5 cbr 500 ------- 1 1.0 5.0 30 31
+ 0.355 1 0 cbr 500 ------- 1 1.0 5.0 51 55
- 0.355 1 0 cbr 500 ------- 1 1.0 5.0 51 55
r 0.35664 0 5 cbr 500 ------- 1 1.0 5.0 28 29
r 0.359 1 0 cbr 500 ------- 1 1.0 5.0 49 53
+ 0.359 0 5 cbr 500 ------- 1 1.0 5.0 49 53
+ 0.36 1 0 cbr 500 ------- 1 1.0 5.0 52 56
- 0.36 1 0 cbr 500 ------- 1 1.0 5.0 52 56
- 0.36264 0 5 cbr 500 ------- 1 1.0 5.0 31 32
r 0.364 1 0 cbr 500 ------- 1 1.0 5.0 50 54
+ 0.364 0 5 cbr 500 ------- 1 1.0 5.0 50 54
r 0.36464 0 5 cbr 500 ------- 1 1.0 5.0 29 30
+ 0.365 1 0 cbr 500 ------- 1 1.0 5.0 53 57
- 0.365 1 0 cbr 500 ------- 1 1.0 5.0 53 57
r 0.369 1 0 cbr 500 ------- 1 1.0 5.0 51 55
+ 0.369 0 5 cbr 500 ------- 1 1.0 5.0 51 55
+ 0.37 1 0 cbr 500 ------- 1 1.0 5.0 54 58
- 0.37 1 0 cbr 500 ------- 1 1.0 5.0 54 58
- 0.37064 0 5 cbr 500 ------- 1 1.0 5.0 32 33
r 0.37264 0 5 cbr 500 ------- 1 1.0 5.0 30 31
r 0.374 1 0 cbr 500 ------- 1 1.0 5.0 52 56
+ 0.374 0 5 cbr 500 ------- 1 1.0 5.0 52 56
+ 0.375 1 0 cbr 500 ------- 1 1.0 5.0 55 59
- 0.375 1 0 cbr 500 ------- 1 1.0 5.0 55 59
- 0.37864 0 5 cbr 500 ------- 1 1.0 5.0 33 34
r 0.379 1 0 cbr 500 ------- 1 1.0 5.0 53 57
+ 0.379 0 5 cbr 500 ------- 1 1.0 5.0 53 57
+ 0.38 1 0 cbr 500 ------- 1 1.0 5.0 56 60
- 0.38 1 0 cbr 500 ------- 1 1.0 5.0 56 60
r 0.38064 0 5 cbr 500 ------- 1 1.0 5.0 31 32
r 0.384 1 0 cbr 500 ------- 1 1.0 5.0 54 58
+ 0.384 0 5 cbr 500 ------- 1 1.0 5.0 54 58
+ 0.385 1 0 cbr 500 ------- 1 1.0 5.0 57 61
- 0.385 1 0 cbr 500 ------- 1 1.0 5.0 57 61
- 0.38664 0 5 cbr 500 ------- 1 1.0 5.0 34 35
r 0.38864 0 5 cbr 500 ------- 1 1.0 5.0 32 33
r 0.389 1 0 cbr 500 ------- 1 1.0 5.0 55 59
+ 0.389 0 5 cbr 500 ------- 1 1.0 5.0 55 59
+ 0.39 1 0 cbr 500 ------- 1 1.0 5.0 58 62
- 0.39 1 0 cbr 500 ------- 1 1.0 5.0 58 62
r 0.394 1 0 cbr 500 ------- 1 1.0 5.0 56 60
+ 0.394 0 5 cbr 500 ------- 1 1.0 5.0 56 60
- 0.39464 0 5 cbr 500 ------- 1 1.0 5.0 35 36
+ 0.395 1 0 cbr 500 ------- 1 1.0 5.0 59 63
- 0.395 1 0 cbr 500 ------- 1 1.0 5.0 59 63
r 0.39664 0 5 cbr 500 ------- 1 1.0 5.0 33 34
r 0.399 1 0 cbr 500 ------- 1 1.0 5.0 57 61
+ 0.399 0 5 cbr 500 ------- 1 1.0 5.0 57 61
+ 0.4 1 0 cbr 500 ------- 1 1.0 5.0 60 64
- 0.4 1 0 cbr 500 ------- 1 1.0 5.0 60 64
- 0.40264 0 5 cbr 500 ------- 1 1.0 5.0 36 38
r 0.404 1 0 cbr 500 ------- 1 1.0 5.0 58 62
+ 0.404 0 5 cbr 500 ------- 1 1.0 5.0 58 62
r 0.40464 0 5 cbr 500 ------- 1 1.0 5.0 34 35
+ 0.405 1 0 cbr 500 ------- 1 1.0 5.0 61 65
- 0.405 1 0 cbr 500 ------- 1 1.0 5.0 61 65
r 0.409 1 0 cbr 500 ------- 1 1.0 5.0 59 63
+ 0.409 0 5 cbr 500 ------- 1 1.0 5.0 59 63
+ 0.41 1 0 cbr 500 ------- 1 1.0 5.0 62 66
- 0.41 1 0 cbr 500 ------- 1 1.0 5.0 62 66
- 0.41064 0 5 cbr 500 ------- 1 1.0 5.0 37 39
r 0.41264 0 5 cbr 500 ------- 1 1.0 5.0 35 36
r 0.414 1 0 cbr 500 ------- 1 1.0 5.0 60 64
+ 0.414 0 5 cbr 500 ------- 1 1.0 5.0 60 64
+ 0.415 1 0 cbr 500 ------- 1 1.0 5.0 63 67
- 0.415 1 0 cbr 500 ------- 1 1.0 5.0 63 67
- 0.41864 0 5 tcp 1040 ------- 2 0.0 4.0 1 42
r 0.419 1 0 cbr 500 ------- 1 1.0 5.0 61 65
+ 0.419 0 5 cbr 500 ------- 1 1.0 5.0 61 65
+ 0.42 1 0 cbr 500 ------- 1 1.0 5.0 64 68
- 0.42 1 0 cbr 500 ------- 1 1.0 5.0 64 68
r 0.42064 0 5 cbr 500 ------- 1 1.0 5.0 36 38
r 0.424 1 0 cbr 500 ------- 1 1.0 5.0 62 66
+ 0.424 0 5 cbr 500 ------- 1 1.0 5.0 62 66
+ 0.425 1 0 cbr 500 ------- 1 1.0 5.0 65 69
- 0.425 1 0 cbr 500 ------- 1 1.0 5.0 65 69
r 0.42864 0 5 cbr 500 ------- 1 1.0 5.0 37 39
r 0.429 1 0 cbr 500 ------- 1 1.0 5.0 63 67
+ 0.429 0 5 cbr 500 ------- 1 1.0 5.0 63 67
+ 0.43 1 0 cbr 500 ------- 1 1.0 5.0 66 70
- 0.43 1 0 cbr 500 ------- 1 1.0 5.0 66 70
r 0.434 1 0 cbr 500 ------- 1 1.0 5.0 64 68
+ 0.434 0 5 cbr 500 ------- 1 1.0 5.0 64 68
+ 0.435 1 0 cbr 500 ------- 1 1.0 5.0 67 71
- 0.435 1 0 cbr 500 ------- 1 1.0 5.0 67 71
- 0.43528 0 5 tcp 1040 ------- 2 0.0 4.0 2 43
r 0.439 1 0 cbr 500 ------- 1 1.0 5.0 65 69
+ 0.439 0 5 cbr 500 ------- 1 1.0 5.0 65 69
+ 0.44 1 0 cbr 500 ------- 1 1.0 5.0 68 72
- 0.44 1 0 cbr 500 ------- 1 1.0 5.0 68 72
r 0.444 1 0 cbr 500 ------- 1 1.0 5.0 66 70
+ 0.444 0 5 cbr 500 ------- 1 1.0 5.0 66 70
+ 0.445 1 0 cbr 500 ------- 1 1.0 5.0 69 73
- 0.445 1 0 cbr 500 ------- 1 1.0 5.0 69 73
r 0.44528 0 5 tcp 1040 ------- 2 0.0 4.0 1 42
+ 0.44528 5 4 tcp 1040 ------- 2 0.0 4.0 1 42
- 0.44528 5 4 tcp 1040 ------- 2 0.0 4.0 1 42
r 0.449 1 0 cbr 500 ------- 1 1.0 5.0 67 71
+ 0.449 0 5 cbr 500 ------- 1 1.0 5.0 67 71
+ 0.45 1 0 cbr 500 ------- 1 1.0 5.0 70 74
- 0.45 1 0 cbr 500 ------- 1 1.0 5.0 70 74
- 0.45192 0 5 cbr 500 ------- 1 1.0 5.0 38 40
r 0.454 1 0 cbr 500 ------- 1 1.0 5.0 68 72
+ 0.454 0 5 cbr 500 ------- 1 1.0 5.0 68 72
+ 0.455 1 0 cbr 500 ------- 1 1.0 5.0 71 75