V -t * -v 1.0a5 -a 0
A -t * -n 1 -p 0 -o 0x7fffffff -c 30 -a 1
A -t * -h 1 -m 1073741823 -s 0
c -t * -i 1 -n Red
c -t * -i 2 -n Blue
n -t * -a 4 -s 4 -S UP -v circle -c black -i black
n -t * -a 0 -s 0 -S UP -v circle -c black -i black
n -t * -a 5 -s 5 -S UP -v circle -c black -i black
n -t * -a 1 -s 1 -S UP -v circle -c black -i black
n -t * -a 2 -s 2 -S UP -v circle -c black -i black
n -t * -a 3 -s 3 -S UP -v circle -c black -i black
l -t * -s 0 -d 1 -S UP -r 1000000 -D 0.01 -c black
l -t * -s 1 -d 2 -S UP -r 1000000 -D 0.01 -c black
l -t * -s 2 -d 3 -S UP -r 1000000 -D 0.01 -c black
l -t * -s 3 -d 4 -S UP -r 1000000 -D 0.01 -c black
l -t * -s 4 -d 5 -S UP -r 1000000 -D 0.01 -c black
l -t * -s 0 -d 5 -S UP -r 500000 -D 0.01 -c black
+ -t 0.1 -s 1 -d 0 -p cbr -e 500 -c 1 -i 0 -a 1 -x {1.0 5.0 0 ------- null}
- -t 0.1 -s 1 -d 0 -p cbr -e 500 -c 1 -i 0 -a 1 -x {1.0 5.0 0 ------- null}
h -t 0.1 -s 1 -d 0 -p cbr -e 500 -c 1 -i 0 -a 1 -x {1.0 5.0 -1 ------- null}
+ -t 0.105 -s 1 -d 0 -p cbr -e 500 -c 1 -i 1 -a 1 -x {1.0 5.0 1 ------- null}
- -t 0.105 -s 1 -d 0 -p cbr -e 500 -c 1 -i 1 -a 1 -x {1.0 5.0 1 ------- null}
h -t 0.105 -s 1 -d 0 -p cbr -e 500 -c 1 -i 1 -a 1 -x {1.0 5.0 -1 ------- null}
+ -t 0.11 -s 1 -d 0 -p cbr -e 500 -c 1 -i 2 -a 1 -x {1.0 5.0 2 ------- null}
- -t 0.11 -s 1 -d 0 -p cbr -e 500 -c 1 -i 2 -a 1 -x {1.0 5.0 2 ------- null}
h -t 0.11 -s 1 -d 0 -p cbr -e 500 -c 1 -i 2 -a 1 -x {1.0 5.0 -1 ------- null}
r -t 0.114 -s 1 -d 0 -p cbr -e 500 -c 1 -i 0 -a 1 -x {1.0 5.0 0 ------- null}
+ -t 0.114 -s 0 -d 5 -p cbr -e 500 -c 1 -i 0 -a 1 -x {1.0 5.0 0 ------- null}
- -t 0.114 -s 0 -d 5 -p cbr -e 500 -c 1 -i 0 -a 1 -x {1.0 5.0 0 ------- null}
h -t 0.114 -s 0 -d 5 -p cbr -e 500 -c 1 -i 0 -a 1 -x {1.0 5.0 -1 ------- null}
+ -t 0.115 -s 1 -d 0 -p cbr -e 500 -c 1 -i 3 -a 1 -x {1.0 5.0 3 ------- null}
- -t 0.115 -s 1 -d 0 -p cbr -e 500 -c 1 -i 3 -a 1 -x {1.0 5.0 3 ------- null}
h -t 0.115 -s 1 -d 0 -p cbr -e 500 -c 1 -i 3 -a 1 -x {1.0 5.0 -1 ------- null}
r -t 0.119 -s 1 -d 0 -p cbr -e 500 -c 1 -i 1 -a 1 -x {1.0 5.0 1 ------- null}
+ -t 0.119 -s 0 -d 5 -p cbr -e 500 -c 1 -i 1 -a 1 -x {1.0 5.0 1 ------- null}
+ -t 0.12 -s 1 -d 0 -p cbr -e 500 -c 1 -i 4 -a 1 -x {1.0 5.0 4 ------- null}
- -t 0.12 -s 1 -d 0 -p cbr -e 500 -c 1 -i 4 -a 1 -x {1.0 5.0 4 ------- null}
h -t 0.12 -s 1 -d 0 -p cbr -e 500 -c 1 -i 4 -a 1 -x {1.0 5.0 -1 ------- null}
- -t 0.122 -s 0 -d 5 -p cbr -e 500 -c 1 -i 1 -a 1 -x {1.0 5.0 1 ------- null}
h -t 0.122 -s 0 -d 5 -p cbr -e 500 -c 1 -i 1 -a 1 -x {1.0 5.0 -1 ------- null}
r -t 0.124 -s 1 -d 0 -p cbr -e 500 -c 1 -i 2 -a 1 -x {1.0 5.0 2 ------- null}
+ -t 0.124 -s 0 -d 5 -p cbr -e 500 -c 1 -i 2 -a 1 -x {1.0 5.0 2 ------- null}
+ -t 0.125 -s 1 -d 0 -p cbr -e 500 -c 1 -i 5 -a 1 -x {1.0 5.0 5 ------- null}
- -t 0.125 -s 1 -d 0 -p cbr -e 500 -c 1 -i 5 -a 1 -x {1.0 5.0 5 ------- null}
h -t 0.125 -s 1 -d 0 -p cbr -e 500 -c 1 -i 5 -a 1 -x {1.0 5.0 -1 ------- null}
r -t 0.129 -s 1 -d 0 -p cbr -e 500 -c 1 -i 3 -a 1 -x {1.0 5.0 3 ------- null}
+ -t 0.129 -s 0 -d 5 -p cbr -e 500 -c 1 -i 3 -a 1 -x {1.0 5.0 3 ------- null}
- -t 0.13 -s 0 -d 5 -p cbr -e 500 -c 1 -i 2 -a 1 -x {1.0 5.0 2 ------- null}
h -t 0.13 -s 0 -d 5 -p cbr -e 500 -c 1 -i 2 -a 1 -x {1.0 5.0 -1 ------- null}
+ -t 0.13 -s 1 -d 0 -p cbr -e 500 -c 1 -i 6 -a 1 -x {1.0 5.0 6 ------- null}
- -t 0.13 -s 1 -d 0 -p cbr -e 500 -c 1 -i 6 -a 1 -x {1.0 5.0 6 ------- null}
h -t 0.13 -s 1 -d 0 -p cbr -e 500 -c 1 -i 6 -a 1 -x {1.0 5.0 -1 ------- null}
r -t 0.132 -s 0 -d 5 -p cbr -e 500 -c 1 -i 0 -a 1 -x {1.0 5.0 0 ------- null}
r -t 0.134 -s 1 -d 0 -p cbr -e 500 -c 1 -i 4 -a 1 -x {1.0 5.0 4 ------- null}
+ -t 0.134 -s 0 -d 5 -p cbr -e 500 -c 1 -i 4 -a 1 -x {1.0 5.0 4 ------- null}
+ -t 0.135 -s 1 -d 0 -p cbr -e 500 -c 1 -i 7 -a 1 -x {1.0 5.0 7 ------- null}
- -t 0.135 -s 1 -d 0 -p cbr -e 500 -c 1 -i 7 -a 1 -x {1.0 5.0 7 ------- null}
h -t 0.135 -s 1 -d 0 -p cbr -e 500 -c 1 -i 7 -a 1 -x {1.0 5.0 -1 ------- null}
- -t 0.138 -s 0 -d 5 -p cbr -e 500 -c 1 -i 3 -a 1 -x {1.0 5.0 3 ------- null}
h -t 0.138 -s 0 -d 5 -p cbr -e 500 -c 1 -i 3 -a 1 -x {1.0 5.0 -1 ------- null}
r -t 0.139 -s 1 -d 0 -p cbr -e 500 -c 1 -i 5 -a 1 -x {1.0 5.0 5 ------- null}
+ -t 0.139 -s 0 -d 5 -p cbr -e 500 -c 1 -i 5 -a 1 -x {1.0 5.0 5 ------- null}
r -t 0.14 -s 0 -d 5 -p cbr -e 500 -c 1 -i 1 -a 1 -x {1.0 5.0 1 ------- null}
+ -t 0.14 -s 1 -d 0 -p cbr -e 500 -c 1 -i 8 -a 1 -x {1.0 5.0 8 ------- null}
- -t 0.14 -s 1 -d 0 -p cbr -e 500 -c 1 -i 8 -a 1 -x {1.0 5.0 8 ------- null}
h -t 0.14 -s 1 -d 0 -p cbr -e 500 -c 1 -i 8 -a 1 -x {1.0 5.0 -1 ------- null}
r -t 0.144 -s 1 -d 0 -p cbr -e 500 -c 1 -i 6 -a 1 -x {1.0 5.0 6 ------- null}
+ -t 0.144 -s 0 -d 5 -p cbr -e 500 -c 1 -i 6 -a 1 -x {1.0 5.0 6 ------- null}
+ -t 0.145 -s 1 -d 0 -p cbr -e 500 -c 1 -i 9 -a 1 -x {1.0 5.0 9 ------- null}
- -t 0.145 -s 1 -d 0 -p cbr -e 500 -c 1 -i 9 -a 1 -x {1.0 5.0 9 ------- null}
h -t 0.145 -s 1 -d 0 -p cbr -e 500 -c 1 -i 9 -a 1 -x {1.0 5.0 -1 ------- null}
- -t 0.146 -s 0 -d 5 -p cbr -e 500 -c 1 -i 4 -a 1 -x {1.0 5.0 4 ------- null}
h -t 0.146 -s 0 -d 5 -p cbr -e 500 -c 1 -i 4 -a 1 -x {1.0 5.0 -1 ------- null}
r -t 0.148 -s 0 -d 5 -p cbr -e 500 -c 1 -i 2 -a 1 -x {1.0 5.0 2 ------- null}
r -t 0.149 -s 1 -d 0 -p cbr -e 500 -c 1 -i 7 -a 1 -x {1.0 5.0 7 ------- null}
+ -t 0.149 -s 0 -d 5 -p cbr -e 500 -c 1 -i 7 -a 1 -x {1.0 5.0 7 ------- null}
+ -t 0.15 -s 1 -d 0 -p cbr -e 500 -c 1 -i 10 -a 1 -x {1.0 5.0 10 ------- null}
- -t 0.15 -s 1 -d 0 -p cbr -e 500 -c 1 -i 10 -a 1 -x {1.0 5.0 10 ------- null}
h -t 0.15 -s 1 -d 0 -p cbr -e 500 -c 1 -i 10 -a 1 -x {1.0 5.0 -1 ------- null}
- -t 0.154 -s 0 -d 5 -p cbr -e 500 -c 1 -i 5 -a 1 -x {1.0 5.0 5 ------- null}
h -t 0.154 -s 0 -d 5 -p cbr -e 500 -c 1 -i 5 -a 1 -x {1.0 5.0 -1 ------- null}
r -t 0.154 -s 1 -d 0 -p cbr -e 500 -c 1 -i 8 -a 1 -x {1.0 5.0 8 ------- null}
+ -t 0.154 -s 0 -d 5 -p cbr -e 500 -c 1 -i 8 -a 1 -x {1.0 5.0 8 ------- null}
+ -t 0.155 -s 1 -d 0 -p cbr -e 500 -c 1 -i 11 -a 1 -x {1.0 5.0 11 ------- null}
- -t 0.155 -s 1 -d 0 -p cbr -e 500 -c 1 -i 11 -a 1 -x {1.0 5.0 11 ------- null}
h -t 0.155 -s 1 -d 0 -p cbr -e 500 -c 1 -i 11 -a 1 -x {1.0 5.0 -1 ------- null}
r -t 0.156 -s 0 -d 5 -p cbr -e 500 -c 1 -i 3 -a 1 -x {1.0 5.0 3 ------- null}
r -t 0.159 -s 1 -d 0 -p cbr -e 500 -c 1 -i 9 -a 1 -x {1.0 5.0 9 ------- null}
+ -t 0.159 -s 0 -d 5 -p cbr -e 500 -c 1 -i 9 -a 1 -x {1.0 5.0 9 ------- null}
+ -t 0.16 -s 1 -d 0 -p cbr -e 500 -c 1 -i 12 -a 1 -x {1.0 5.0 12 ------- null}
- -t 0.16 -s 1 -d 0 -p cbr -e 500 -c 1 -i 12 -a 1 -x {1.0 5.0 12 ------- null}
h -t 0.16 -s 1 -d 0 -p cbr -e 500 -c 1 -i 12 -a 1 -x {1.0 5.0 -1 ------- null}
- -t 0.162 -s 0 -d 5 -p cbr -e 500 -c 1 -i 6 -a 1 -x {1.0 5.0 6 ------- null}
h -t 0.162 -s 0 -d 5 -p cbr -e 500 -c 1 -i 6 -a 1 -x {1.0 5.0 -1 ------- null}
r -t 0.164 -s 0 -d 5 -p cbr -e 500 -c 1 -i 4 -a 1 -x {1.0 5.0 4 ------- null}
r -t 0.164 -s 1 -d 0 -p cbr -e 500 -c 1 -i 10 -a 1 -x {1.0 5.0 10 ------- null}
+ -t 0.164 -s 0 -d 5 -p cbr -e 500 -c 1 -i 10 -a 1 -x {1.0 5.0 10 ------- null}
+ -t 0.165 -s 1 -d 0 -p cbr -e 500 -c 1 -i 13 -a 1 -x {1.0 5.0 13 ------- null}
- -t 0.165 -s 1 -d 0 -p cbr -e 500 -c 1 -i 13 -a 1 -x {1.0 5.0 13 ------- null}
h -t 0.165 -s 1 -d 0 -p cbr -e 500 -c 1 -i 13 -a 1 -x {1.0 5.0 -1 ------- null}
r -t 0.169 -s 1 -d 0 -p cbr -e 500 -c 1 -i 11 -a 1 -x {1.0 5.0 11 ------- null}
+ -t 0.169 -s 0 -d 5 -p cbr -e 500 -c 1 -i 11 -a 1 -x {1.0 5.0 11 ------- null}
- -t 0.17 -s 0 -d 5 -p cbr -e 500 -c 1 -i 7 -a 1 -x {1.0 5.0 7 ------- null}
h -t 0.17 -s 0 -d 5 -p cbr -e 500 -c 1 -i 7 -a 1 -x {1.0 5.0 -1 ------- null}
+ -t 0.17 -s 1 -d 0 -p cbr -e 500 -c 1 -i 14 -a 1 -x {1.0 5.0 14 ------- null}
- -t 0.17 -s 1 -d 0 -p cbr -e 500 -c 1 -i 14 -a 1 -x {1.0 5.0 14 ------- null}
h -t 0.17 -s 1 -d 0 -p cbr -e 500 -c 1 -i 14 -a 1 -x {1.0 5.0 -1 ------- null}
r -t 0.172 -s 0 -d 5 -p cbr -e 500 -c 1 -i 5 -a 1 -x {1.0 5.0 5 ------- null}
r -t 0.174 -s 1 -d 0 -p cbr -e 500 -c 1 -i 12 -a 1 -x {1.0 5.0 12 ------- null}
+ -t 0.174 -s 0 -d 5 -p cbr -e 500 -c 1 -i 12 -a 1 -x {1.0 5.0 12 ------- null}
+ -t 0.175 -s 1 -d 0 -p cbr -e 500 -c 1 -i 15 -a 1 -x {1.0 5.0 15 ------- null}
- -t 0.175 -s 1 -d 0 -p cbr -e 500 -c 1 -i 15 -a 1 -x {1.0 5.0 15 ------- null}
h -t 0.175 -s 1 -d 0 -p cbr -e 500 -c 1 -i 15 -a 1 -x {1.0 5.0 -1 ------- null}
- -t 0.178 -s 0 -d 5 -p cbr -e 500 -c 1 -i 8 -a 1 -x {1.0 5.0 8 ------- null}
h -t 0.178 -s 0 -d 5 -p cbr -e 500 -c 1 -i 8 -a 1 -x {1.0 5.0 -1 ------- null}
r -t 0.179 -s 1 -d 0 -p cbr -e 500 -c 1 -i 13 -a 1 -x {1.0 5.0 13 ------- null}
+ -t 0.179 -s 0 -d 5 -p cbr -e 500 -c 1 -i 13 -a 1 -x {1.0 5.0 13 ------- null}
r -t 0.18 -s 0 -d 5 -p cbr -e 500 -c 1 -i 6 -a 1 -x {1.0 5.0 6 ------- null}
+ -t 0.18 -s 1 -d 0 -p cbr -e 500 -c 1 -i 16 -a 1 -x {1.0 5.0 16 ------- null}
- -t 0.18 -s 1 -d 0 -p cbr -e 500 -c 1 -i 16 -a 1 -x {1.0 5.0 16 ------- null}
h -t 0.18 -s 1 -d 0 -p cbr -e 500 -c 1 -i 16 -a 1 -x {1.0 5.0 -1 ------- null}
r -t 0.184 -s 1 -d 0 -p cbr -e 500 -c 1 -i 14 -a 1 -x {1.0 5.0 14 ------- null}
+ -t 0.184 -s 0 -d 5 -p cbr -e 500 -c 1 -i 14 -a 1 -x {1.0 5.0 14 ------- null}
+ -t 0.185 -s 1 -d 0 -p cbr -e 500 -c 1 -i 17 -a 1 -x {1.0 5.0 17 ------- null}
- -t 0.185 -s 1 -d 0 -p cbr -e 500 -c 1 -i 17 -a 1 -x {1.0 5.0 17 ------- null}
h -t 0.185 -s 1 -d 0 -p cbr -e 500 -c 1 -i 17 -a 1 -x {1.0 5.0 -1 ------- null}
- -t 0.186 -s 0 -d 5 -p cbr -e 500 -c 1 -i 9 -a 1 -x {1.0 5.0 9 ------- null}
h -t 0.186 -s 0 -d 5 -p cbr -e 500 -c 1 -i 9 -a 1 -x {1.0 5.0 -1 ------- null}
r -t 0.188 -s 0 -d 5 -p cbr -e 500 -c 1 -i 7 -a 1 -x {1.0 5.0 7 ------- null}
r -t 0.189 -s 1 -d 0 -p cbr -e 500 -c 1 -i 15 -a 1 -x {1.0 5.0 15 ------- null}
+ -t 0.189 -s 0 -d 5 -p cbr -e 500 -c 1 -i 15 -a 1 -x {1.0 5.0 15 ------- null}
+ -t 0.19 -s 1 -d 0 -p cbr -e 500 -c 1 -i 18 -a 1 -x {1.0 5.0 18 ------- null}
- -t 0.19 -s 1 -d 0 -p cbr -e 500 -c 1 -i 18 -a 1 -x {1.0 5.0 18 ------- null}
h -t 0.19 -s 1 -d 0 -p cbr -e 500 -c 1 -i 18 -a 1 -x {1.0 5.0 -1 ------- null}
- -t 0.194 -s 0 -d 5 -p cbr -e 500 -c 1 -i 10 -a 1 -x {1.0 5.0 10 ------- null}
h -t 0.194 -s 0 -d 5 -p cbr -e 500 -c 1 -i 10 -a 1 -x {1.0 5.0 -1 ------- null}
r -t 0.194 -s 1 -d 0 -p cbr -e 500 -c 1 -i 16 -a 1 -x {1.0 5.0 16 ------- null}
+ -t 0.194 -s 0 -d 5 -p cbr -e 500 -c 1 -i 16 -a 1 -x {1.0 5.0 16 ------- null}
+ -t 0.195 -s 1 -d 0 -p cbr -e 500 -c 1 -i 19 -a 1 -x {1.0 5.0 19 ------- null}
- -t 0.195 -s 1 -d 0 -p cbr -e 500 -c 1 -i 19 -a 1 -x {1.0 5.0 19 ------- null}
h -t 0.195 -s 1 -d 0 -p cbr -e 500 -c 1 -i 19 -a 1 -x {1.0 5.0 -1 ------- null}
r -t 0.196 -s 0 -d 5 -p cbr -e 500 -c 1 -i 8 -a 1 -x {1.0 5.0 8 ------- null}
r -t 0.199 -s 1 -d 0 -p cbr -e 500 -c 1 -i 17 -a 1 -x {1.0 5.0 17 ------- null}
+ -t 0.199 -s 0 -d 5 -p cbr -e 500 -c 1 -i 17 -a 1 -x {1.0 5.0 17 ------- null}
+ -t 0.2 -s 0 -d 5 -p tcp -e 40 -c 2 -i 20 -a 2 -x {0.0 4.0 0 ------- null}
+ -t 0.2 -s 1 -d 0 -p cbr -e 500 -c 1 -i 21 -a 1 -x {1.0 5.0 20 ------- null}
- -t 0.2 -s 1 -d 0 -p cbr -e 500 -c 1 -i 21 -a 1 -x {1.0 5.0 20 ------- null}
h -t 0.2 -s 1 -d 0 -p cbr -e 500 -c 1 -i 21 -a 1 -x {1.0 5.0 -1 ------- null}
- -t 0.202 -s 0 -d 5 -p cbr -e 500 -c 1 -i 11 -a 1 -x {1.0 5.0 11 ------- null}
h -t 0.202 -s 0 -d 5 -p cbr -e 500 -c 1 -i 11 -a 1 -x {1.0 5.0 -1 ------- null}
r -t 0.204 -s 0 -d 5 -p cbr -e 500 -c 1 -i 9 -a 1 -x {1.0 5.0 9 ------- null}
r -t 0.204 -s 1 -d 0 -p cbr -e 500 -c 1 -i 18 -a 1 -x {1.0 5.0 18 ------- null}
+ -t 0.204 -s 0 -d 5 -p cbr -e 500 -c 1 -i 18 -a 1 -x {1.0 5.0 18 ------- null}
+ -t 0.205 -s 1 -d 0 -p cbr -e 500 -c 1 -i 22 -a 1 -x {1.0 5.0 21 ------- null}
- -t 0.205 -s 1 -d 0 -p cbr -e 500 -c 1 -i 22 -a 1 -x {1.0 5.0 21 ------- null}
h -t 0.205 -s 1 -d 0 -p cbr -e 500 -c 1 -i 22 -a 1 -x {1.0 5.0 -1 ------- null}
r -t 0.209 -s 1 -d 0 -p cbr -e 500 -c 1 -i 19 -a 1 -x {1.0 5.0 19 ------- null}
+ -t 0.209 -s 0 -d 5 -p cbr -e 500 -c 1 -i 19 -a 1 -x {1.0 5.0 19 ------- null}
- -t 0.21 -s 0 -d 5 -p cbr -e 500 -c 1 -i 12 -a 1 -x {1.0 5.0 12 ------- null}
h -t 0.21 -s 0 -d 5 -p cbr -e 500 -c 1 -i 12 -a 1 -x {1.0 5.0 -1 ------- null}
+ -t 0.21 -s 1 -d 0 -p cbr -e 500 -c 1 -i 23 -a 1 -x {1.0 5.0 22 ------- null}
- -t 0.21 -s 1 -d 0 -p cbr -e 500 -c 1 -i 23 -a 1 -x {1.0 5.0 22 ------- null}
h -t 0.21 -s 1 -d 0 -p cbr -e 500 -c 1 -i 23 -a 1 -x {1.0 5.0 -1 ------- null}
r -t 0.212 -s 0 -d 5 -p cbr -e 500 -c 1 -i 10 -a 1 -x {1.0 5.0 10 ------- null}
r -t 0.214 -s 1 -d 0 -p cbr -e 500 -c 1 -i 21 -a 1 -x {1.0 5.0 20 ------- null}
+ -t 0.214 -s 0 -d 5 -p cbr -e 500 -c 1 -i 21 -a 1 -x {1.0 5.0 20 ------- null}
+ -t 0.215 -s 1 -d 0 -p cbr -e 500 -c 1 -i 24 -a 1 -x {1.0 5.0 23 ------- null}
- -t 0.215 -s 1 -d 0 -p cbr -e 500 -c 1 -i 24 -a 1 -x {1.0 5.0 23 ------- null}
h -t 0.215 -s 1 -d 0 -p cbr -e 500 -c 1 -i 24 -a 1 -x {1.0 5.0 -1 ------- null}
- -t 0.218 -s 0 -d 5 -p cbr -e 500 -c 1 -i 13 -a 1 -x {1.0 5.0 13 ------- null}
h -t 0.218 -s 0 -d 5 -p cbr -e 500 -c 1 -i 13 -a 1 -x {1.0 5.0 -1 ------- null}
r -t 0.219 -s 1 -d 0 -p cbr -e 500 -c 1 -i 22 -a 1 -x {1.0 5.0 21 ------- null}
+ -t 0.219 -s 0 -d 5 -p cbr -e 500 -c 1 -i 22 -a 1 -x {1.0 5.0 21 ------- null}
r -t 0.22 -s 0 -d 5 -p cbr -e 500 -c 1 -i 11 -a 1 -x {1.0 5.0 11 ------- null}
+ -t 0.22 -s 1 -d 0 -p cbr -e 500 -c 1 -i 25 -a 1 -x {1.0 5.0 24 ------- null}
- -t 0.22 -s 1 -d 0 -p cbr -e 500 -c 1 -i 25 -a 1 -x {1.0 5.0 24 ------- null}
h -t 0.22 -s 1 -d 0 -p cbr -e 500 -c 1 -i 25 -a 1 -x {1.0 5.0 -1 ------- null}
r -t 0.224 -s 1 -d 0 -p cbr -e 500 -c 1 -i 23 -a 1 -x {1.0 5.0 22 ------- null}
+ -t 0.224 -s 0 -d 5 -p cbr -e 500 -c 1 -i 23 -a 1 -x {1.0 5.0 22 ------- null}
+ -t 0.225 -s 1 -d 0 -p cbr -e 500 -c 1 -i 26 -a 1 -x {1.0 5.0 25 ------- null}
- -t 0.225 -s 1 -d 0 -p cbr -e 500 -c 1 -i 26 -a 1 -x {1.0 5.0 25 ------- null}
h -t 0.225 -s 1 -d 0 -p cbr -e 500 -c 1 -i 26 -a 1 -x {1.0 5.0 -1 ------- null}
- -t 0.226 -s 0 -d 5 -p cbr -e 500 -c 1 -i 14 -a 1 -x {1.0 5.0 14 ------- null}
h -t 0.226 -s 0 -d 5 -p cbr -e 500 -c 1 -i 14 -a 1 -x {1.0 5.0 -1 ------- null}
r -t 0.228 -s 0 -d 5 -p cbr -e 500 -c 1 -i 12 -a 1 -x {1.0 5.0 12 ------- null}
r -t 0.229 -s 1 -d 0 -p cbr -e 500 -c 1 -i 24 -a 1 -x {1.0 5.0 23 ------- null}
+ -t 0.229 -s 0 -d 5 -p cbr -e 500 -c 1 -i 24 -a 1 -x {1.0 5.0 23 ------- null}
+ -t 0.23 -s 1 -d 0 -p cbr -e 500 -c 1 -i 27 -a 1 -x {1.0 5.0 26 ------- null}
- -t 0.23 -s 1 -d 0 -p cbr -e 500 -c 1 -i 27 -a 1 -x {1.0 5.0 26 ------- null}
h -t 0.23 -s 1 -d 0 -p cbr -e 500 -c 1 -i 27 -a 1 -x {1.0 5.0 -1 ------- null}
- -t 0.234 -s 0 -d 5 -p cbr -e 500 -c 1 -i 15 -a 1 -x {1.0 5.0 15 ------- null}
h -t 0.234 -s 0 -d 5 -p cbr -e 500 -c 1 -i 15 -a 1 -x {1.0 5.0 -1 ------- null}
r -t 0.234 -s 1 -d 0 -p cbr -e 500 -c 1 -i 25 -a 1 -x {1.0 5.0 24 ------- null}
+ -t 0.234 -s 0 -d 5 -p cbr -e 500 -c 1 -i 25 -a 1 -x {1.0 5.0 24 ------- null}
+ -t 0.235 -s 1 -d 0 -p cbr -e 500 -c 1 -i 28 -a 1 -x {1.0 5.0 27 ------- null}
- -t 0.235 -s 1 -d 0 -p cbr -e 500 -c 1 -i 28 -a 1 -x {1.0 5.0 27 ------- null}
h -t 0.235 -s 1 -d 0 -p cbr -e 500 -c 1 -i 28 -a 1 -x {1.0 5.0 -1 ------- null}
r -t 0.236 -s 0 -d 5 -p cbr -e 500 -c 1 -i 13 -a 1 -x {1.0 5.0 13 ------- null}
r -t 0.239 -s 1 -d 0 -p cbr -e 500 -c 1 -i 26 -a 1 -x {1.0 5.0 25 ------- null}
+ -t 0.239 -s 0 -d 5 -p cbr -e 500 -c 1 -i 26 -a 1 -x {1.0 5.0 25 ------- null}
+ -t 0.24 -s 1 -d 0 -p cbr -e 500 -c 1 -i 29 -a 1 -x {1.0 5.0 28 ------- null}
- -t 0.24 -s 1 -d 0 -p cbr -e 500 -c 1 -i 29 -a 1 -x {1.0 5.0 28 ------- null}
h -t 0.24 -s 1 -d 0 -p cbr -e 500 -c 1 -i 29 -a 1 -x {1.0 5.0 -1 ------- null}
- -t 0.242 -s 0 -d 5 -p cbr -e 500 -c 1 -i 16 -a 1 -x {1.0 5.0 16 ------- null}
h -t 0.242 -s 0 -d 5 -p cbr -e 500 -c 1 -i 16 -a 1 -x {1.0 5.0 -1 ------- null}
r -t 0.244 -s 0 -d 5 -p cbr -e 500 -c 1 -i 14 -a 1 -x {1.0 5.0 14 ------- null}
r -t 0.244 -s 1 -d 0 -p cbr -e 500 -c 1 -i 27 -a 1 -x {1.0 5.0 26 ------- null}
+ -t 0.244 -s 0 -d 5 -p cbr -e 500 -c 1 -i 27 -a 1 -x {1.0 5.0 26 ------- null}
+ -t 0.245 -s 1 -d 0 -p cbr -e 500 -c 1 -i 30 -a 1 -x {1.0 5.0 29 ------- null}
- -t 0.245 -s 1 -d 0 -p cbr -e 500 -c 1 -i 30 -a 1 -x {1.0 5.0 29 ------- null}
h -t 0.245 -s 1 -d 0 -p cbr -e 500 -c 1 -i 30 -a 1 -x {1.0 5.0 -1 ------- null}
r -t 0.249 -s 1 -d 0 -p cbr -e 500 -c 1 -i 28 -a 1 -x {1.0 5.0 27 ------- null}
+ -t 0.249 -s 0 -d 5 -p cbr -e 500 -c 1 -i 28 -a 1 -x {1.0 5.0 27 ------- null}
- -t 0.25 -s 0 -d 5 -p cbr -e 500 -c 1 -i 17 -a 1 -x {1.0 5.0 17 ------- null}
h -t 0.25 -s 0 -d 5 -p cbr -e 500 -c 1 -i 17 -a 1 -x {1.0 5.0 -1 ------- null}
+ -t 0.25 -s 1 -d 0 -p cbr -e 500 -c 1 -i 31 -a 1 -x {1.0 5.0 30 ------- null}
- -t 0.25 -s 1 -d 0 -p cbr -e 500 -c 1 -i 31 -a 1 -x {1.0 5.0 30 ------- null}
h -t 0.25 -s 1 -d 0 -p cbr -e 500 -c 1 -i 31 -a 1 -x {1.0 5.0 -1 ------- null}
r -t 0.252 -s 0 -d 5 -p cbr -e 500 -c 1 -i 15 -a 1 -x {1.0 5.0 15 ------- null}
r -t 0.254 -s 1 -d 0 -p cbr -e 500 -c 1 -i 29 -a 1 -x {1.0 5.0 28 ------- null}
+ -t 0.254 -s 0 -d 5 -p cbr -e 500 -c 1 -i 29 -a 1 -x {1.0 5.0 28 ------- null}
+ -t 0.255 -s 1 -d 0 -p cbr -e 500 -c 1 -i 32 -a 1 -x {1.0 5.0 31 ------- null}
- -t 0.255 -s 1 -d 0 -p cbr -e 500 -c 1 -i 32 -a 1 -x {1.0 5.0 31 ------- null}
h -t 0.255 -s 1 -d 0 -p cbr -e 500 -c 1 -i 32 -a 1 -x {1.0 5.0 -1 ------- null}
- -t 0.258 -s 0 -d 5 -p tcp -e 40 -c 2 -i 20 -a 2 -x {0.0 4.0 0 ------- null}
h -t 0.258 -s 0 -d 5 -p tcp -e 40 -c 2 -i 20 -a 2 -x {0.0 4.0 -1 ------- null}
- -t 0.25864 -s 0 -d 5 -p cbr -e 500 -c 1 -i 18 -a 1 -x {1.0 5.0 18 ------- null}
h -t 0.25864 -s 0 -d 5 -p cbr -e 500 -c 1 -i 18 -a 1 -x {1.0 5.0 -1 ------- null}
r -t 0.259 -s 1 -d 0 -p cbr -e 500 -c 1 -i 30 -a 1 -x {1.0 5.0 29 ------- null}
+ -t 0.259 -s 0 -d 5 -p cbr -e 500 -c 1 -i 30 -a 1 -x {1.0 5.0 29 ------- null}
r -t 0.26 -s 0 -d 5 -p cbr -e 500 -c 1 -i 16 -a 1 -x {1.0 5.0 16 ------- null}
+ -t 0.26 -s 1 -d 0 -p cbr -e 500 -c 1 -i 33 -a 1 -x {1.0 5.0 32 ------- null}
- -t 0.26 -s 1 -d 0 -p cbr -e 500 -c 1 -i 33 -a 1 -x {1.0 5.0 32 ------- null}
h -t 0.26 -s 1 -d 0 -p cbr -e 500 -c 1 -i 33 -a 1 -x {1.0 5.0 -1 ------- null}
r -t 0.264 -s 1 -d 0 -p cbr -e 500 -c 1 -i 31 -a 1 -x {1.0 5.0 30 ------- null}
+ -t 0.264 -s 0 -d 5 -p cbr -e 500 -c 1 -i 31 -a 1 -x {1.0 5.0 30 ------- null}
+ -t 0.265 -s 1 -d 0 -p cbr -e 500 -c 1 -i 34 -a 1 -x {1.0 5.0 33 ------- null}
- -t 0.265 -s 1 -d 0 -p cbr -e 500 -c 1 -i 34 -a 1 -x {1.0 5.0 33 ------- null}
h -t 0.265 -s 1 -d 0 -p cbr -e 500 -c 1 -i 34 -a 1 -x {1.0 5.0 -1 ------- null}
- -t 0.26664 -s 0 -d 5 -p cbr -e 500 -c 1 -i 19 -a 1 -x {1.0 5.0 19 ------- null}
h -t 0.26664 -s 0 -d 5 -p cbr -e 500 -c 1 -i 19 -a 1 -x {1.0 5.0 -1 ------- null}
r -t 0.268 -s 0 -d 5 -p cbr -e 500 -c 1 -i 17 -a 1 -x {1.0 5.0 17 ------- null}
r -t 0.26864 -s 0 -d 5 -p tcp -e 40 -c 2 -i 20 -a 2 -x {0.0 4.0 0 ------- null}
+ -t 0.26864 -s 5 -d 4 -p tcp -e 40 -c 2 -i 20 -a 2 -x {0.0 4.0 0 ------- null}
- -t 0.26864 -s 5 -d 4 -p tcp -e 40 -c 2 -i 20 -a 2 -x {0.0 4.0 0 ------- null}
h -t 0.26864 -s 5 -d 4 -p tcp -e 40 -c 2 -i 20 -a 2 -x {0.0 4.0 -1 ------- null}
r -t 0.269 -s 1 -d 0 -p cbr -e 500 -c 1 -i 32 -a 1 -x {1.0 5.0 31 ------- null}
+ -t 0.269 -s 0 -d 5 -p cbr -e 500 -c 1 -i 32 -a 1 -x {1.0 5.0 31 ------- null}
+ -t 0.27 -s 1 -d 0 -p cbr -e 500 -c 1 -i 35 -a 1 -x {1.0 5.0 34 ------- null}
- -t 0.27 -s 1 -d 0 -p cbr -e 500 -c 1 -i 35 -a 1 -x {1.0 5.0 34 ------- null}
h -t 0.27 -s 1 -d 0 -p cbr -e 500 -c 1 -i 35 -a 1 -x {1.0 5.0 -1 ------- null}
r -t 0.274 -s 1 -d 0 -p cbr -e 500 -c 1 -i 33 -a 1 -x {1.0 5.0 32 ------- null}
+ -t 0.274 -s 0 -d 5 -p cbr -e 500 -c 1 -i 33 -a 1 -x {1.0 5.0 32 ------- null}
- -t 0.27464 -s 0 -d 5 -p cbr -e 500 -c 1 -i 21 -a 1 -x {1.0 5.0 20 ------- null}
h -t 0.27464 -s 0 -d 5 -p cbr -e 500 -c 1 -i 21 -a 1 -x {1.0 5.0 -1 ------- null}
+ -t 0.275 -s 1 -d 0 -p cbr -e 500 -c 1 -i 36 -a 1 -x {1.0 5.0 35 ------- null}
- -t 0.275 -s 1 -d 0 -p cbr -e 500 -c 1 -i 36 -a 1 -x {1.0 5.0 35 ------- null}
h -t 0.275 -s 1 -d 0 -p cbr -e 500 -c 1 -i 36 -a 1 -x {1.0 5.0 -1 ------- null}
r -t 0.27664 -s 0 -d 5 -p cbr -e 500 -c 1 -i 18 -a 1 -x {1.0 5.0 18 ------- null}
r -t 0.27896 -s 5 -d 4 -p tcp -e 40 -c 2 -i 20 -a 2 -x {0.0 4.0 0 ------- null}
+ -t 0.27896 -s 4 -d 5 -p ack -e 40 -c 2 -i 37 -a 2 -x {4.0 0.0 0 ------- null}
- -t 0.27896 -s 4 -d 5 -p ack -e 40 -c 2 -i 37 -a 2 -x {4.0 0.0 0 ------- null}
h -t 0.27896 -s 4 -d 5 -p ack -e 40 -c 2 -i 37 -a 2 -x {4.0 0.0 -1 ------- null}
r -t 0.279 -s 1 -d 0 -p cbr -e 500 -c 1 -i 34 -a 1 -x {1.0 5.0 33 ------- null}
+ -t 0.279 -s 0 -d 5 -p cbr -e 500 -c 1 -i 34 -a 1 -x {1.0 5.0 33 ------- null}
+ -t 0.28 -s 1 -d 0 -p cbr -e 500 -c 1 -i 38 -a 1 -x {1.0 5.0 36 ------- null}
- -t 0.28 -s 1 -d 0 -p cbr -e 500 -c 1 -i 38 -a 1 -x {1.0 5.0 36 ------- null}
h -t 0.28 -s 1 -d 0 -p cbr -e 500 -c 1 -i 38 -a 1 -x {1.0 5.0 -1 ------- null}
- -t 0.28264 -s 0 -d 5 -p cbr -e 500 -c 1 -i 22 -a 1 -x {1.0 5.0 21 ------- null}
h -t 0.28264 -s 0 -d 5 -p cbr -e 500 -c 1 -i 22 -a 1 -x {1.0 5.0 -1 ------- null}
r -t 0.284 -s 1 -d 0 -p cbr -e 500 -c 1 -i 35 -a 1 -x {1.0 5.0 34 ------- null}
+ -t 0.284 -s 0 -d 5 -p cbr -e 500 -c 1 -i 35 -a 1 -x {1.0 5.0 34 ------- null}
r -t 0.28464 -s 0 -d 5 -p cbr -e 500 -c 1 -i 19 -a 1 -x {1.0 5.0 19 ------- null}
+ -t 0.285 -s 1 -d 0 -p cbr -e 500 -c 1 -i 39 -a 1 -x {1.0 5.0 37 ------- null}
- -t 0.285 -s 1 -d 0 -p cbr -e 500 -c 1 -i 39 -a 1 -x {1.0 5.0 37 ------- null}
h -t 0.285 -s 1 -d 0 -p cbr -e 500 -c 1 -i 39 -a 1 -x {1.0 5.0 -1 ------- null}
r -t 0.289 -s 1 -d 0 -p cbr -e 500 -c 1 -i 36 -a 1 -x {1.0 5.0 35 ------- null}
+ -t 0.289 -s 0 -d 5 -p cbr -e 500 -c 1 -i 36 -a 1 -x {1.0 5.0 35 ------- null}
r -t 0.28928 -s 4 -d 5 -p ack -e 40 -c 2 -i 37 -a 2 -x {4.0 0.0 0 ------- null}
+ -t 0.28928 -s 5 -d 0 -p ack -e 40 -c 2 -i 37 -a 2 -x {4.0 0.0 0 ------- null}
- -t 0.28928 -s 5 -d 0 -p ack -e 40 -c 2 -i 37 -a 2 -x {4.0 0.0 0 ------- null}
h -t 0.28928 -s 5 -d 0 -p ack -e 40 -c 2 -i 37 -a 2 -x {4.0 0.0 -1 ------- null}
+ -t 0.29 -s 1 -d 0 -p cbr -e 500 -c 1 -i 40 -a 1 -x {1.0 5.0 38 ------- null}
- -t 0.29 -s 1 -d 0 -p cbr -e 500 -c 1 -i 40 -a 1 -x {1.0 5.0 38 ------- null}
h -t 0.29 -s 1 -d 0 -p cbr -e 500 -c 1 -i 40 -a 1 -x {1.0 5.0 -1 ------- null}
- -t 0.29064 -s 0 -d 5 -p cbr -e 500 -c 1 -i 23 -a 1 -x {1.0 5.0 22 ------- null}
h -t 0.29064 -s 0 -d 5 -p cbr -e 500 -c 1 -i 23 -a 1 -x {1.0 5.0 -1 ------- null}
r -t 0.29264 -s 0 -d 5 -p cbr -e 500 -c 1 -i 21 -a 1 -x {1.0 5.0 20 ------- null}
r -t 0.294 -s 1 -d 0 -p cbr -e 500 -c 1 -i 38 -a 1 -x {1.0 5.0 36 ------- null}
+ -t 0.294 -s 0 -d 5 -p cbr -e 500 -c 1 -i 38 -a 1 -x {1.0 5.0 36 ------- null}
+ -t 0.295 -s 1 -d 0 -p cbr -e 500 -c 1 -i 41 -a 1 -x {1.0 5.0 39 ------- null}
- -t 0.295 -s 1 -d 0 -p cbr -e 500 -c 1 -i 41 -a 1 -x {1.0 5.0 39 ------- null}
h -t 0.295 -s 1 -d 0 -p cbr -e 500 -c 1 -i 41 -a 1 -x {1.0 5.0 -1 ------- null}
- -t 0.29864 -s 0 -d 5 -p cbr -e 500 -c 1 -i 24 -a 1 -x {1.0 5.0 23 ------- null}
h -t 0.29864 -s 0 -d 5 -p cbr -e 500 -c 1 -i 24 -a 1 -x {1.0 5.0 -1 ------- null}
r -t 0.299 -s 1 -d 0 -p cbr -e 500 -c 1 -i 39 -a 1 -x {1.0 5.0 37 ------- null}
+ -t 0.299 -s 0 -d 5 -p cbr -e 500 -c 1 -i 39 -a 1 -x {1.0 5.0 37 ------- null}
r -t 0.29992 -s 5 -d 0 -p ack -e 40 -c 2 -i 37 -a 2 -x {4.0 0.0 0 ------- null}
+ -t 0.29992 -s 0 -d 5 -p tcp -e 1040 -c 2 -i 42 -a 2 -x {0.0 4.0 1 ------- null}
+ -t 0.29992 -s 0 -d 5 -p tcp -e 1040 -c 2 -i 43 -a 2 -x {0.0 4.0 2 ------- null}
+ -t 0.3 -s 1 -d 0 -p cbr -e 500 -c 1 -i 44 -a 1 -x {1.0 5.0 40 ------- null}
- -t 0.3 -s 1 -d 0 -p cbr -e 500 -c 1 -i 44 -a 1 -x {1.0 5.0 40 ------- null}
h -t 0.3 -s 1 -d 0 -p cbr -e 500 -c 1 -i 44 -a 1 -x {1.0 5.0 -1 ------- null}
r -t 0.30064 -s 0 -d 5 -p cbr -e 500 -c 1 -i 22 -a 1 -x {1.0 5.0 21 ------- null}
r -t 0.304 -s 1 -d 0 -p cbr -e 500 -c 1 -i 40 -a 1 -x {1.0 5.0 38 ------- null}
+ -t 0.304 -s 0 -d 5 -p cbr -e 500 -c 1 -i 40 -a 1 -x {1.0 5.0 38 ------- null}
+ -t 0.305 -s 1 -d 0 -p cbr -e 500 -c 1 -i 45 -a 1 -x {1.0 5.0 41 ------- null}
- -t 0.305 -s 1 -d 0 -p cbr -e 500 -c 1 -i 45 -a 1 -x {1.0 5.0 41 ------- null}
h -t 0.305 -s 1 -d 0 -p cbr -e 500 -c 1 -i 45 -a 1 -x {1.0 5.0 -1 ------- null}
- -t 0.30664 -s 0 -d 5 -p cbr -e 500 -c 1 -i 25 -a 1 -x {1.0 5.0 24 ------- null}
h -t 0.30664 -s 0 -d 5 -p cbr -e 500 -c 1 -i 25 -a 1 -x {1.0 5.0 -1 ------- null}
r -t 0.30864 -s 0 -d 5 -p cbr -e 500 -c 1 -i 23 -a 1 -x {1.0 5.0 22 ------- null}
r -t 0.309 -s 1 -d 0 -p cbr -e 500 -c 1 -i 41 -a 1 -x {1.0 5.0 39 ------- null}
+ -t 0.309 -s 0 -d 5 -p cbr -e 500 -c 1 -i 41 -a 1 -x {1.0 5.0 39 ------- null}
+ -t 0.31 -s 1 -d 0 -p cbr -e 500 -c 1 -i 46 -a 1 -x {1.0 5.0 42 ------- null}
- -t 0.31 -s 1 -d 0 -p cbr -e 500 -c 1 -i 46 -a 1 -x {1.0 5.0 42 ------- null}
h -t 0.31 -s 1 -d 0 -p cbr -e 500 -c 1 -i 46 -a 1 -x {1.0 5.0 -1 ------- null}
r -t 0.314 -s 1 -d 0 -p cbr -e 500 -c 1 -i 44 -a 1 -x {1.0 5.0 40 ------- null}
+ -t 0.314 -s 0 -d 5 -p cbr -e 500 -c 1 -i 44 -a 1 -x {1.0 5.0 40 ------- null}
- -t 0.31464 -s 0 -d 5 -p cbr -e 500 -c 1 -i 26 -a 1 -x {1.0 5.0 25 ------- null}
h -t 0.31464 -s 0 -d 5 -p cbr -e 500 -c 1 -i 26 -a 1 -x {1.0 5.0 -1 ------- null}
+ -t 0.315 -s 1 -d 0 -p cbr -e 500 -c 1 -i 47 -a 1 -x {1.0 5.0 43 ------- null}
- -t 0.315 -s 1 -d 0 -p cbr -e 500 -c 1 -i 47 -a 1 -x {1.0 5.0 43 ------- null}
h -t 0.315 -s 1 -d 0 -p cbr -e 500 -c 1 -i 47 -a 1 -x {1.0 5.0 -1 ------- null}
r -t 0.31664 -s 0 -d 5 -p cbr -e 500 -c 1 -i 24 -a 1 -x {1.0 5.0 23 ------- null}
r -t 0.319 -s 1 -d 0 -p cbr -e 500 -c 1 -i 45 -a 1 -x {1.0 5.0 41 ------- null}
+ -t 0.319 -s 0 -d 5 -p cbr -e 500 -c 1 -i 45 -a 1 -x {1.0 5.0 41 ------- null}
+ -t 0.32 -s 1 -d 0 -p cbr -e 500 -c 1 -i 48 -a 1 -x {1.0 5.0 44 ------- null}
- -t 0.32 -s 1 -d 0 -p cbr -e 500 -c 1 -i 48 -a 1 -x {1.0 5.0 44 ------- null}
h -t 0.32 -s 1 -d 0 -p cbr -e 500 -c 1 -i 48 -a 1 -x {1.0 5.0 -1 ------- null}
- -t 0.32264 -s 0 -d 5 -p cbr -e 500 -c 1 -i 27 -a 1 -x {1.0 5.0 26 ------- null}
h -t 0.32264 -s 0 -d 5 -p cbr -e 500 -c 1 -i 27 -a 1 -x {1.0 5.0 -1 ------- null}
r -t 0.324 -s 1 -d 0 -p cbr -e 500 -c 1 -i 46 -a 1 -x {1.0 5.0 42 ------- null}
+ -t 0.324 -s 0 -d 5 -p cbr -e 500 -c 1 -i 46 -a 1 -x {1.0 5.0 42 ------- null}
r -t 0.32464 -s 0 -d 5 -p cbr -e 500 -c 1 -i 25 -a 1 -x {1.0 5.0 24 ------- null}
+ -t 0.325 -s 1 -d 0 -p cbr -e 500 -c 1 -i 49 -a 1 -x {1.0 5.0 45 ------- null}
- -t 0.325 -s 1 -d 0 -p cbr -e 500 -c 1 -i 49 -a 1 -x {1.0 5.0 45 ------- null}
h -t 0.325 -s 1 -d 0 -p cbr -e 500 -c 1 -i 49 -a 1 -x {1.0 5.0 -1 ------- null}
r -t 0.329 -s 1 -d 0 -p cbr -e 500 -c 1 -i 47 -a 1 -x {1.0 5.0 43 ------- null}
+ -t 0.329 -s 0 -d 5 -p cbr -e 500 -c 1 -i 47 -a 1 -x {1.0 5.0 43 ------- null}
+ -t 0.33 -s 1 -d 0 -p cbr -e 500 -c 1 -i 50 -a 1 -x {1.0 5.0 46 ------- null}
- -t 0.33 -s 1 -d 0 -p cbr -e 500 -c 1 -i 50 -a 1 -x {1.0 5.0 46 ------- null}
h -t 0.33 -s 1 -d 0 -p cbr -e 500 -c 1 -i 50 -a 1 -x {1.0 5.0 -1 ------- null}
- -t 0.33064 -s 0 -d 5 -p cbr -e 500 -c 1 -i 28 -a 1 -x {1.0 5.0 27 ------- null}
h -t 0.33064 -s 0 -d 5 -p cbr -e 500 -c 1 -i 28 -a 1 -x {1.0 5.0 -1 ------- null}
r -t 0.33264 -s 0 -d 5 -p cbr -e 500 -c 1 -i 26 -a 1 -x {1.0 5.0 25 ------- null}
r -t 0.334 -s 1 -d 0 -p cbr -e 500 -c 1 -i 48 -a 1 -x {1.0 5.0 44 ------- null}
+ -t 0.334 -s 0 -d 5 -p cbr -e 500 -c 1 -i 48 -a 1 -x {1.0 5.0 44 ------- null}
+ -t 0.335 -s 1 -d 0 -p cbr -e 500 -c 1 -i 51 -a 1 -x {1.0 5.0 47 ------- null}
- -t 0.335 -s 1 -d 0 -p cbr -e 500 -c 1 -i 51 -a 1 -x {1.0 5.0 47 ------- null}
h -t 0.335 -s 1 -d 0 -p cbr -e 500 -c 1 -i 51 -a 1 -x {1.0 5.0 -1 ------- null}
- -t 0.33864 -s 0 -d 5 -p cbr -e 500 -c 1 -i 29 -a 1 -x {1.0 5.0 28 ------- null}
h -t 0.33864 -s 0 -d 5 -p cbr -e 500 -c 1 -i 29 -a 1 -x {1.0 5.0 -1 ------- null}
r -t 0.339 -s 1 -d 0 -p cbr -e 500 -c 1 -i 49 -a 1 -x {1.0 5.0 45 ------- null}
+ -t 0.339 -s 0 -d 5 -p cbr -e 500 -c 1 -i 49 -a 1 -x {1.0 5.0 45 ------- null}
+ -t 0.34 -s 1 -d 0 -p cbr -e 500 -c 1 -i 52 -a 1 -x {1.0 5.0 48 ------- null}
- -t 0.34 -s 1 -d 0 -p cbr -e 500 -c 1 -i 52 -a 1 -x {1.0 5.0 48 ------- null}
h -t 0.34 -s 1 -d 0 -p cbr -e 500 -c 1 -i 52 -a 1 -x {1.0 5.0 -1 ------- null}
r -t 0.34064 -s 0 -d 5 -p cbr -e 500 -c 1 -i 27 -a 1 -x {1.0 5.0 26 ------- null}
r -t 0.344 -s 1 -d 0 -p cbr -e 500 -c 1 -i 50 -a 1 -x {1.0 5.0 46 ------- null}
+ -t 0.344 -s 0 -d 5 -p cbr -e 500 -c 1 -i 50 -a 1 -x {1.0 5.0 46 ------- null}
+ -t 0.345 -s 1 -d 0 -p cbr -e 500 -c 1 -i 53 -a 1 -x {1.0 5.0 49 ------- null}
- -t 0.345 -s 1 -d 0 -p cbr -e 500 -c 1 -i 53 -a 1 -x {1.0 5.0 49 ------- null}
h -t 0.345 -s 1 -d 0 -p cbr -e 500 -c 1 -i 53 -a 1 -x {1.0 5.0 -1 ------- null}
- -t 0.34664 -s 0 -d 5 -p cbr -e 500 -c 1 -i 30 -a 1 -x {1.0 5.0 29 ------- null}
h -t 0.34664 -s 0 -d 5 -p cbr -e 500 -c 1 -i 30 -a 1 -x {1.0 5.0 -1 ------- null}
r -t 0.34864 -s 0 -d 5 -p cbr -e 500 -c 1 -i 28 -a 1 -x {1.0 5.0 27 ------- null}
r -t 0.349 -s 1 -d 0 -p cbr -e 500 -c 1 -i 51 -a 1 -x {1.0 5.0 47 ------- null}
+ -t 0.349 -s 0 -d 5 -p cbr -e 500 -c 1 -i 51 -a 1 -x {1.0 5.0 47 ------- null}
+ -t 0.35 -s 1 -d 0 -p cbr -e 500 -c 1 -i 54 -a 1 -x {1.0 5.0 50 ------- null}
- -t 0.35 -s 1 -d 0 -p cbr -e 500 -c 1 -i 54 -a 1 -x {1.0 5.0 50 ------- null}
h -t 0.35 -s 1 -d 0 -p cbr -e 500 -c 1 -i 54 -a 1 -x {1.0 5.0 -1 ------- null}
r -t 0.354 -s 1 -d 0 -p cbr -e 500 -c 1 -i 52 -a 1 -x {1.0 5.0 48 ------- null}
+ -t 0.354 -s 0 -d 5 -p cbr -e 500 -c 1 -i 52 -a 1 -x {1.0 5.0 48 ------- null}
- -t 0.35464 -s 0 -d 5 -p cbr -e 500 -c 1 -i 31 -a 1 -x {1.0 5.0 30 ------- null}
h -t 0.35464 -s 0 -d 5 -p cbr -e 500 -c 1 -i 31 -a 1 -x {1.0 5.0 -1 ------- null}
+ -t 0.355 -s 1 -d 0 -p cbr -e 500 -c 1 -i 55 -a 1 -x {1.0 5.0 51 ------- null}
- -t 0.355 -s 1 -d 0 -p cbr -e 500 -c 1 -i 55 -a 1 -x {1.0 5.0 51 ------- null}
h -t 0.355 -s 1 -d 0 -p cbr -e 500 -c 1 -i 55 -a 1 -x {1.0 5.0 -1 ------- null}
r -t 0.35664 -s 0 -d 5 -p cbr -e 500 -c 1 -i 29 -a 1 -x {1.0 5.0 28 ------- null}
r -t 0.359 -s 1 -d 0 -p cbr -e 500 -c 1 -i 53 -a 1 -x {1.0 5.0 49 ------- null}
+ -t 0.359 -s 0 -d 5 -p cbr -e 500 -c 1 -i 53 -a 1 -x {1.0 5.0 49 ------- null}
+ -t 0.36 -s 1 -d 0 -p cbr -e 500 -c 1 -i 56 -a 1 -x {1.0 5.0 52 ------- null}
- -t 0.36 -s 1 -d 0 -p cbr -e 500 -c 1 -i 56 -a 1 -x {1.0 5.0 52 ------- null}